# vtk DataFile Version 1.0 
Bar_TO_3D 
ASCII 
DATASET UNSTRUCTURED_GRID 
POINTS 6601 float 
0.000000 0.000000 
0.000000 0.000000 1.000000 
0.000000 0.000000 2.000000 
0.000000 0.000000 3.000000 
0.000000 0.000000 4.000000 
0.000000 0.000000 5.000000 
0.000000 0.000000 6.000000 
0.000000 0.000000 7.000000 
0.000000 0.000000 8.000000 
0.000000 0.000000 9.000000 
0.000000 0.000000 10.000000 
0.000000 0.000000 11.000000 
0.000000 0.000000 12.000000 
0.000000 0.000000 13.000000 
0.000000 0.000000 14.000000 
0.000000 0.000000 15.000000 
0.000000 0.000000 16.000000 
0.000000 0.000000 17.000000 
0.000000 0.000000 18.000000 
0.000000 0.000000 19.000000 
0.000000 0.000000 20.000000 
0.000000 0.000000 21.000000 
0.000000 0.000000 22.000000 
0.000000 0.000000 23.000000 
0.000000 0.000000 24.000000 
0.000000 0.000000 25.000000 
0.000000 0.000000 26.000000 
0.000000 0.000000 27.000000 
0.000000 0.000000 28.000000 
0.000000 0.000000 29.000000 
0.000000 0.000000 30.000000 
0.000000 0.000000 31.000000 
0.000000 0.000000 32.000000 
0.000000 0.000000 33.000000 
0.000000 0.000000 34.000000 
0.000000 0.000000 35.000000 
0.000000 0.000000 36.000000 
0.000000 0.000000 37.000000 
0.000000 0.000000 38.000000 
0.000000 0.000000 39.000000 
0.000000 0.000000 40.000000 
0.000000 0.000000 41.000000 
0.000000 0.000000 42.000000 
0.000000 0.000000 43.000000 
0.000000 0.000000 44.000000 
0.000000 0.000000 45.000000 
0.000000 0.000000 46.000000 
0.000000 0.000000 47.000000 
0.000000 0.000000 48.000000 
0.000000 0.000000 49.000000 
0.000000 0.000000 50.000000 
0.000000 0.000000 51.000000 
0.000000 0.000000 52.000000 
0.000000 0.000000 53.000000 
0.000000 0.000000 54.000000 
0.000000 0.000000 55.000000 
0.000000 0.000000 56.000000 
0.000000 0.000000 57.000000 
0.000000 0.000000 58.000000 
0.000000 0.000000 59.000000 
0.000000 0.000000 60.000000 
0.000000 0.000000 61.000000 
0.000000 0.000000 62.000000 
0.000000 0.000000 63.000000 
0.000000 0.000000 64.000000 
0.000000 0.000000 65.000000 
0.000000 0.000000 66.000000 
0.000000 0.000000 67.000000 
0.000000 0.000000 68.000000 
0.000000 0.000000 69.000000 
0.000000 0.000000 70.000000 
0.000000 0.000000 71.000000 
0.000000 0.000000 72.000000 
0.000000 0.000000 73.000000 
0.000000 0.000000 74.000000 
0.000000 0.000000 75.000000 
0.000000 0.000000 76.000000 
0.000000 0.000000 77.000000 
0.000000 0.000000 78.000000 
0.000000 0.000000 79.000000 
0.000000 0.000000 80.000000 
0.000000 0.000000 81.000000 
0.000000 0.000000 82.000000 
0.000000 0.000000 83.000000 
0.000000 0.000000 84.000000 
0.000000 0.000000 85.000000 
0.000000 0.000000 86.000000 
0.000000 0.000000 87.000000 
0.000000 0.000000 88.000000 
0.000000 0.000000 89.000000 
0.000000 0.000000 90.000000 
0.000000 0.000000 91.000000 
0.000000 0.000000 92.000000 
0.000000 0.000000 93.000000 
0.000000 0.000000 94.000000 
0.000000 0.000000 95.000000 
0.000000 0.000000 96.000000 
0.000000 0.000000 97.000000 
0.000000 0.000000 98.000000 
0.000000 0.000000 99.000000 
0.000000 0.000000 100.000000 
0.000000 1.000000 0.000000 
0.000000 1.000000 1.000000 
0.000000 1.000000 2.000000 
0.000000 1.000000 3.000000 
0.000000 1.000000 4.000000 
0.000000 1.000000 5.000000 
0.000000 1.000000 6.000000 
0.000000 1.000000 7.000000 
0.000000 1.000000 8.000000 
0.000000 1.000000 9.000000 
0.000000 1.000000 10.000000 
0.000000 1.000000 11.000000 
0.000000 1.000000 12.000000 
0.000000 1.000000 13.000000 
0.000000 1.000000 14.000000 
0.000000 1.000000 15.000000 
0.000000 1.000000 16.000000 
0.000000 1.000000 17.000000 
0.000000 1.000000 18.000000 
0.000000 1.000000 19.000000 
0.000000 1.000000 20.000000 
0.000000 1.000000 21.000000 
0.000000 1.000000 22.000000 
0.000000 1.000000 23.000000 
0.000000 1.000000 24.000000 
0.000000 1.000000 25.000000 
0.000000 1.000000 26.000000 
0.000000 1.000000 27.000000 
0.000000 1.000000 28.000000 
0.000000 1.000000 29.000000 
0.000000 1.000000 30.000000 
0.000000 1.000000 31.000000 
0.000000 1.000000 32.000000 
0.000000 1.000000 33.000000 
0.000000 1.000000 34.000000 
0.000000 1.000000 35.000000 
0.000000 1.000000 36.000000 
0.000000 1.000000 37.000000 
0.000000 1.000000 38.000000 
0.000000 1.000000 39.000000 
0.000000 1.000000 40.000000 
0.000000 1.000000 41.000000 
0.000000 1.000000 42.000000 
0.000000 1.000000 43.000000 
0.000000 1.000000 44.000000 
0.000000 1.000000 45.000000 
0.000000 1.000000 46.000000 
0.000000 1.000000 47.000000 
0.000000 1.000000 48.000000 
0.000000 1.000000 49.000000 
0.000000 1.000000 50.000000 
0.000000 1.000000 51.000000 
0.000000 1.000000 52.000000 
0.000000 1.000000 53.000000 
0.000000 1.000000 54.000000 
0.000000 1.000000 55.000000 
0.000000 1.000000 56.000000 
0.000000 1.000000 57.000000 
0.000000 1.000000 58.000000 
0.000000 1.000000 59.000000 
0.000000 1.000000 60.000000 
0.000000 1.000000 61.000000 
0.000000 1.000000 62.000000 
0.000000 1.000000 63.000000 
0.000000 1.000000 64.000000 
0.000000 1.000000 65.000000 
0.000000 1.000000 66.000000 
0.000000 1.000000 67.000000 
0.000000 1.000000 68.000000 
0.000000 1.000000 69.000000 
0.000000 1.000000 70.000000 
0.000000 1.000000 71.000000 
0.000000 1.000000 72.000000 
0.000000 1.000000 73.000000 
0.000000 1.000000 74.000000 
0.000000 1.000000 75.000000 
0.000000 1.000000 76.000000 
0.000000 1.000000 77.000000 
0.000000 1.000000 78.000000 
0.000000 1.000000 79.000000 
0.000000 1.000000 80.000000 
0.000000 1.000000 81.000000 
0.000000 1.000000 82.000000 
0.000000 1.000000 83.000000 
0.000000 1.000000 84.000000 
0.000000 1.000000 85.000000 
0.000000 1.000000 86.000000 
0.000000 1.000000 87.000000 
0.000000 1.000000 88.000000 
0.000000 1.000000 89.000000 
0.000000 1.000000 90.000000 
0.000000 1.000000 91.000000 
0.000000 1.000000 92.000000 
0.000000 1.000000 93.000000 
0.000000 1.000000 94.000000 
0.000000 1.000000 95.000000 
0.000000 1.000000 96.000000 
0.000000 1.000000 97.000000 
0.000000 1.000000 98.000000 
0.000000 1.000000 99.000000 
0.000000 1.000000 100.000000 
0.000000 2.000000 0.000000 
0.000000 2.000000 1.000000 
0.000000 2.000000 2.000000 
0.000000 2.000000 3.000000 
0.000000 2.000000 4.000000 
0.000000 2.000000 5.000000 
0.000000 2.000000 6.000000 
0.000000 2.000000 7.000000 
0.000000 2.000000 8.000000 
0.000000 2.000000 9.000000 
0.000000 2.000000 10.000000 
0.000000 2.000000 11.000000 
0.000000 2.000000 12.000000 
0.000000 2.000000 13.000000 
0.000000 2.000000 14.000000 
0.000000 2.000000 15.000000 
0.000000 2.000000 16.000000 
0.000000 2.000000 17.000000 
0.000000 2.000000 18.000000 
0.000000 2.000000 19.000000 
0.000000 2.000000 20.000000 
0.000000 2.000000 21.000000 
0.000000 2.000000 22.000000 
0.000000 2.000000 23.000000 
0.000000 2.000000 24.000000 
0.000000 2.000000 25.000000 
0.000000 2.000000 26.000000 
0.000000 2.000000 27.000000 
0.000000 2.000000 28.000000 
0.000000 2.000000 29.000000 
0.000000 2.000000 30.000000 
0.000000 2.000000 31.000000 
0.000000 2.000000 32.000000 
0.000000 2.000000 33.000000 
0.000000 2.000000 34.000000 
0.000000 2.000000 35.000000 
0.000000 2.000000 36.000000 
0.000000 2.000000 37.000000 
0.000000 2.000000 38.000000 
0.000000 2.000000 39.000000 
0.000000 2.000000 40.000000 
0.000000 2.000000 41.000000 
0.000000 2.000000 42.000000 
0.000000 2.000000 43.000000 
0.000000 2.000000 44.000000 
0.000000 2.000000 45.000000 
0.000000 2.000000 46.000000 
0.000000 2.000000 47.000000 
0.000000 2.000000 48.000000 
0.000000 2.000000 49.000000 
0.000000 2.000000 50.000000 
0.000000 2.000000 51.000000 
0.000000 2.000000 52.000000 
0.000000 2.000000 53.000000 
0.000000 2.000000 54.000000 
0.000000 2.000000 55.000000 
0.000000 2.000000 56.000000 
0.000000 2.000000 57.000000 
0.000000 2.000000 58.000000 
0.000000 2.000000 59.000000 
0.000000 2.000000 60.000000 
0.000000 2.000000 61.000000 
0.000000 2.000000 62.000000 
0.000000 2.000000 63.000000 
0.000000 2.000000 64.000000 
0.000000 2.000000 65.000000 
0.000000 2.000000 66.000000 
0.000000 2.000000 67.000000 
0.000000 2.000000 68.000000 
0.000000 2.000000 69.000000 
0.000000 2.000000 70.000000 
0.000000 2.000000 71.000000 
0.000000 2.000000 72.000000 
0.000000 2.000000 73.000000 
0.000000 2.000000 74.000000 
0.000000 2.000000 75.000000 
0.000000 2.000000 76.000000 
0.000000 2.000000 77.000000 
0.000000 2.000000 78.000000 
0.000000 2.000000 79.000000 
0.000000 2.000000 80.000000 
0.000000 2.000000 81.000000 
0.000000 2.000000 82.000000 
0.000000 2.000000 83.000000 
0.000000 2.000000 84.000000 
0.000000 2.000000 85.000000 
0.000000 2.000000 86.000000 
0.000000 2.000000 87.000000 
0.000000 2.000000 88.000000 
0.000000 2.000000 89.000000 
0.000000 2.000000 90.000000 
0.000000 2.000000 91.000000 
0.000000 2.000000 92.000000 
0.000000 2.000000 93.000000 
0.000000 2.000000 94.000000 
0.000000 2.000000 95.000000 
0.000000 2.000000 96.000000 
0.000000 2.000000 97.000000 
0.000000 2.000000 98.000000 
0.000000 2.000000 99.000000 
0.000000 2.000000 100.000000 
0.000000 3.000000 0.000000 
0.000000 3.000000 1.000000 
0.000000 3.000000 2.000000 
0.000000 3.000000 3.000000 
0.000000 3.000000 4.000000 
0.000000 3.000000 5.000000 
0.000000 3.000000 6.000000 
0.000000 3.000000 7.000000 
0.000000 3.000000 8.000000 
0.000000 3.000000 9.000000 
0.000000 3.000000 10.000000 
0.000000 3.000000 11.000000 
0.000000 3.000000 12.000000 
0.000000 3.000000 13.000000 
0.000000 3.000000 14.000000 
0.000000 3.000000 15.000000 
0.000000 3.000000 16.000000 
0.000000 3.000000 17.000000 
0.000000 3.000000 18.000000 
0.000000 3.000000 19.000000 
0.000000 3.000000 20.000000 
0.000000 3.000000 21.000000 
0.000000 3.000000 22.000000 
0.000000 3.000000 23.000000 
0.000000 3.000000 24.000000 
0.000000 3.000000 25.000000 
0.000000 3.000000 26.000000 
0.000000 3.000000 27.000000 
0.000000 3.000000 28.000000 
0.000000 3.000000 29.000000 
0.000000 3.000000 30.000000 
0.000000 3.000000 31.000000 
0.000000 3.000000 32.000000 
0.000000 3.000000 33.000000 
0.000000 3.000000 34.000000 
0.000000 3.000000 35.000000 
0.000000 3.000000 36.000000 
0.000000 3.000000 37.000000 
0.000000 3.000000 38.000000 
0.000000 3.000000 39.000000 
[...]
CELL_DATA 6400 
FIELD FieldData 2 
density 1 6400 float
0.001000 
0.001000 
0.001000 
0.001000 
0.001000 
0.001000 
0.001000 
0.001000 
0.001000 
0.001000 
0.001000 
0.001000 
0.001000 
0.001000 
0.001000 
0.001000 
0.001000 
0.001000 
0.001000 
0.001000 
0.001000 
0.001000 
0.001097 
0.006919 
0.050009 
0.186573 
0.491991 
0.806604 
0.967906 
0.993826 
0.996246 
0.997189 
0.997657 
0.997926 
0.998123 
0.998265 
0.998348 
0.998383 
0.998394 
0.998400 
0.998414 
0.998437 
0.998469 
0.998508 
0.998553 
0.998601 
0.998651 
0.998701 
0.998752 
0.998801 
0.998848 
0.998894 
0.998937 
0.998977 
0.999015 
0.999050 
0.999082 
0.999112 
0.999139 
0.999164 
0.999186 
0.999206 
0.999225 
0.999241 
0.999256 
0.999269 
0.999280 
0.999291 
0.999299 
0.999307 
0.999313 
0.999319 
0.999323 
0.999327 
0.999330 
0.999332 
0.999333 
0.999334 
0.999334 
0.999334 
0.999333 
0.999332 
0.999331 
0.999329 
0.999328 
0.999326 
0.999324 
0.999322 
0.999320 
0.999319 
0.999318 
0.999317 
0.999317 
0.999318 
0.999317 
0.999309 
0.999275 
0.999145 
0.998917 
0.998635 
0.001000 
0.001000 
0.001000 
0.001000 
0.001000 
0.001000 
0.001000 
0.001000 
0.001000 
0.001000 
0.001000 
0.001000 
0.001000 
0.001000 
0.001000 
0.001000 
0.001000 
0.001000 
0.001000 
0.001000 
0.001000 
0.001040 
0.005492 
0.051377 
0.224815 
0.468821 
0.720995 
0.908899 
0.978550 
0.978708 
0.979002 
0.990320 
0.997384 
0.997965 
0.998180 
0.998249 
0.998242 
0.998186 
0.998098 
0.997991 
0.997881 
0.997780 
0.997697 
0.997640 
0.997614 
0.997630 
0.997684 
0.997766 
0.997867 
0.997980 
0.998095 
0.998208 
0.998313 
0.998411 
0.998499 
0.998580 
0.998652 
0.998716 
0.998774 
0.998826 
0.998873 
0.998915 
0.998952 
0.998986 
0.999017 
0.999044 
0.999069 
0.999091 
0.999111 
0.999129 
0.999145 
0.999159 
0.999172 
0.999184 
0.999194 
0.999203 
0.999212 
0.999219 
0.999226 
0.999232 
0.999237 
0.999242 
0.999246 
0.999250 
0.999253 
0.999256 
0.999259 
0.999262 
0.999265 
0.999268 
0.999270 
0.999273 
0.999276 
0.999280 
0.999283 
0.999280 
0.999258 
0.999161 
0.998967 
0.998760 
0.001000 
0.001000 
0.001000 
0.001000 
0.001000 
0.001000 
0.001000 
0.001000 
0.001000 
0.001000 
0.001000 
0.001000 
0.001000 
0.001000 
0.001000 
0.001000 
0.001000 
0.001000 
0.001000 
0.001000 
0.001033 
0.004741 
0.048892 
0.260149 
0.571310 
0.818944 
0.933557 
0.973723 
0.950811 
0.912872 
0.870828 
0.834459 
0.825059 
0.828253 
0.828031 
0.827720 
0.827514 
0.827292 
0.827017 
0.826687 
0.826326 
0.825964 
0.825633 
0.825360 
0.825178 
0.825109 
0.825155 
0.825293 
0.825495 
0.825735 
0.825991 
0.826243 
0.826481 
0.826698 
0.826894 
0.827068 
0.827224 
0.827361 
0.827484 
0.827593 
0.827690 
0.827778 
0.827857 
0.827928 
0.827993 
0.828053 
0.828108 
0.828159 
0.828206 
0.828251 
0.828293 
0.828333 
0.828371 
0.828408 
0.828444 
0.828480 
0.828515 
0.828551 
0.828587 
0.828624 
0.828663 
0.828703 
0.828746 
0.828792 
0.828842 
0.828897 
0.828958 
0.829026 
0.829103 
0.829192 
0.829294 
0.829415 
0.829559 
0.829738 
0.829958 
0.830146 
0.830189 
0.830979 
0.827232 
0.834030 
0.001000 
0.001000 
0.001000 
0.001000 
0.001000 
0.001000 
0.001000 
0.001000 
0.001000 
0.001000 
0.001000 
0.001000 
0.001000 
0.001000 
0.001000 
0.001000 
0.001000 
0.001000 
0.001000 
0.001032 
0.004709 
0.048816 
0.260655 
0.605107 
0.907210 
0.982471 
0.937156 
0.893271 
0.858674 
0.759435 
0.598024 
0.455001 
0.362467 
0.334481 
0.332381 
0.331686 
0.331337 
0.331113 
0.330868 
0.330586 
0.330282 
0.329968 
0.329672 
0.329430 
0.329259 
0.329180 
0.329195 
0.329287 
0.329433 
0.329612 
0.329806 
0.329996 
0.330172 
0.330336 
0.330487 
0.330626 
0.330748 
0.330854 
0.330948 
0.331033 
0.331109 
0.331179 
0.331242 
0.331301 
0.331356 
0.331407 
0.331456 
0.331503 
0.331549 
0.331593 
0.331637 
0.331681 
0.331725 
0.331770 
0.331816 
0.331863 
0.331913 
0.331965 
0.332021 
0.332080 
0.332144 
0.332214 
0.332291 
0.332376 
0.332471 
0.332579 
0.332700 
0.332839 
0.332999 
0.333185 
0.333403 
0.333663 
0.333979 
0.334370 
0.334811 
0.335163 
0.335785 
0.340212 
0.346294 
0.363074 
0.001000 
0.001000 
0.001000 
0.001000 
0.001000 
0.001000 
0.001000 
0.001000 
0.001000 
0.001000 
0.001000 
0.001000 
0.001000 
0.001000 
0.001000 
0.001000 
0.001000 
0.001000 
0.001031 
0.004666 
0.048472 
0.259932 
0.604974 
0.907869 
0.960796 
0.852900 
0.739149 
0.704280 
0.709633 
0.628011 
0.394251 
0.158499 
0.060952 
0.034190 
0.030734 
0.030531 
0.030443 
0.030403 
0.030362 
0.030318 
0.030275 
0.030231 
0.030189 
0.030155 
0.030131 
0.030118 
0.030118 
0.030126 
0.030141 
0.030162 
0.030186 
0.030209 
0.030229 
0.030249 
0.030270 
0.030293 
0.030314 
0.030330 
0.030343 
0.030355 
0.030366 
0.030376 
0.030386 
0.030395 
0.030404 
0.030413 
0.030422 
0.030431 
0.030440 
0.030449 
0.030458 
0.030468 
0.030478 
0.030488 
0.030499 
0.030511 
0.030524 
0.030538 
0.030553 
0.030569 
0.030587 
0.030607 
0.030629 
0.030654 
0.030682 
0.030714 
0.030751 
0.030793 
0.030841 
0.030898 
0.030965 
0.031045 
0.031143 
0.031264 
0.031399 
0.031510 
0.031739 
0.033264 
0.037426 
0.041351 
0.001000 
0.001000 
0.001000 
0.001000 
0.001000 
0.001000 
0.001000 
0.001000 
0.001000 
0.001000 
0.001000 
0.001000 
0.001000 
0.001000 
0.001000 
0.001000 
0.001000 
0.001030 
0.004580 
0.047979 
0.258656 
0.603568 
0.907373 
0.937011 
0.773420 
0.588772 
0.467543 
0.479441 
0.618488 
0.630282 
0.377255 
0.105446 
0.010912 
0.001715 
0.001239 
0.001234 
0.001232 
0.001232 
0.001231 
0.001230 
0.001230 
0.001229 
0.001228 
0.001228 
0.001228 
0.001228 
0.001228 
0.001227 
0.001227 
0.001227 
0.001227 
0.001227 
0.001227 
0.001228 
0.001228 
0.001229 
0.001229 
0.001230 
0.001230 
0.001230 
0.001230 
0.001231 
0.001231 
0.001231 
0.001231 
0.001231 
0.001231 
0.001232 
0.001232 
0.001232 
0.001232 
0.001232 
0.001233 
0.001233 
0.001233 
0.001233 
0.001234 
0.001234 
0.001234 
0.001235 
0.001235 
0.001236 
0.001236 
0.001237 
0.001238 
0.001238 
0.001239 
0.001240 
0.001242 
0.001243 
0.001245 
0.001247 
0.001250 
0.001253 
0.001257 
0.001259 
0.001265 
0.001304 
0.001487 
0.001660 
0.001000 
0.001000 
0.001000 
0.001000 
0.001000 
0.001000 
0.001000 
0.001000 
0.001000 
0.001000 
0.001000 
0.001000 
0.001000 
0.001000 
0.001000 
0.001000 
0.001026 
0.004337 
0.046540 
0.255546 
0.600993 
0.906108 
0.947323 
0.729922 
0.462704 
0.282701 
0.264400 
0.370080 
0.582460 
0.729914 
0.524243 
0.149540 
0.011601 
0.001076 
0.001000 
0.001000 
0.001000 
0.001000 
0.001000 
0.001000 
0.001000 
0.001000 
0.001000 
0.001000 
0.001000 
0.001000 
0.001000 
0.001000 
0.001000 
0.001000 
0.001000 
0.001000 
0.001000 
0.001000 
0.001000 
0.001000 
0.001000 
0.001000 
0.001000 
0.001000 
0.001000 
0.001000 
0.001000 
0.001000 
0.001000 
0.001000 
0.001000 
0.001000 
0.001000 
0.001000 
0.001000 
0.001000 
0.001000 
0.001000 
0.001000 
0.001000 
0.001000 
0.001000 
0.001000 
0.001000 
0.001000 
0.001000 
0.001000 
0.001000 
0.001000 
0.001000 
0.001000 
0.001000 
0.001000 
0.001000 
0.001000 
0.001000 
0.001000 
0.001000 
0.001000 
0.001000 
0.001000 
0.001000 
0.001000 
0.001000 
0.001000 
0.001000 
0.001000 
0.001000 
0.001000 
0.001000 
0.001000 
0.001000 
0.001000 
0.001000 
0.001000 
0.001000 
0.001000 
0.001000 
0.001000 
0.001025 
0.004089 
0.043849 
0.246107 
0.593097 
0.902753 
0.969045 
0.770151 
0.422613 
0.157076 
0.093132 
0.125912 
0.281115 
0.554293 
0.784256 
0.670908 
0.261752 
0.028810 
0.001413 
0.001000 
0.001000 
0.001000 
0.001000 
0.001000 
0.001000 
0.001000 
0.001000 
0.001000 
0.001000 
0.001000 
0.001000 
0.001000 
0.001000 
0.001000 
0.001000 
0.001000 
0.001000 
0.001000 
0.001000 
0.001000 
0.001000 
0.001000 
0.001000 
0.001000 
0.001000 
0.001000 
0.001000 
0.001000 
0.001000 
0.001000 
0.001000 
0.001000 
0.001000 
0.001000 
0.001000 
0.001000 
0.001000 
0.001000 
0.001000 
0.001000 
0.001000 
0.001000 
0.001000 
0.001000 
0.001000 
0.001000 
0.001000 
0.001000 
0.001000 
0.001000 
0.001000 
0.001000 
0.001000 
0.001000 
0.001000 
0.001000 
0.001000 
0.001000 
0.001000 
0.001000 
0.001000 
0.001000 
0.001000 
0.001000 
0.001000 
0.001000 
0.001000 
0.001000 
0.001000 
0.001000 
0.001000 
0.001000 
0.001000 
0.001000 
0.001000 
0.001000 
0.001000 
0.001000 
0.001000 
0.001020 
0.003795 
0.041717 
0.235983 
0.578063 
0.892919 
0.964746 
0.801691 
0.463681 
0.150652 
0.028469 
0.012774 
0.037081 
0.140473 
0.374837 
0.716490 
0.789965 
0.434148 
0.082331 
0.004858 
0.001013 
0.001000 
0.001000 
0.001000 
0.001000 
0.001000 
0.001000 
0.001000 
0.001000 
0.001000 
0.001000 
0.001000 
0.001000 
0.001000 
0.001000 
0.001000 
0.001000 
0.001000 
0.001000 
0.001000 
0.001000 
0.001000 
0.001000 
0.001000 
0.001000 
0.001000 
0.001000 
0.001000 
0.001000 
0.001000 
0.001000 
0.001000 
0.001000 
0.001000 
0.001000 
0.001000 
0.001000 
0.001000 
0.001000 
0.001000 
0.001000 
0.001000 
0.001000 
0.001000 
0.001000 
0.001000 
0.001000 
0.001000 
0.001000 
0.001000 
0.001000 
0.001000 
0.001000 
0.001000 
0.001000 
0.001000 
0.001000 
0.001000 
0.001000 
0.001000 
0.001000 
0.001000 
0.001000 
0.001000 
0.001000 
0.001000 
0.001000 
0.001000 
0.001000 
0.001000 
0.001000 
0.001000 
0.001000 
0.001000 
0.001000 
0.001000 
0.001000 
0.001000 
0.001000 
0.001020 
0.003512 
0.038168 
0.224437 
0.565838 
0.882413 
0.965476 
0.804402 
0.472109 
0.166999 
0.025615 
0.002546 
0.001431 
0.004982 
0.035154 
0.182760 
0.540405 
0.851284 
0.651195 
0.228687 
0.023713 
0.001437 
0.001000 
0.001000 
0.001000 
0.001000 
0.001000 
0.001000 
0.001000 
0.001000 
0.001000 
0.001000 
0.001000 
0.001000 
0.001000 
0.001000 
0.001000 
0.001000 
0.001000 
0.001000 
0.001000 
0.001000 
0.001000 
0.001000 
0.001000 
0.001000 
0.001000 
0.001000 
0.001000 
0.001000 
0.001000 
0.001000 
0.001000 
0.001000 
0.001000 
0.001000 
0.001000 
0.001000 
0.001000 
0.001000 
0.001000 
0.001000 
0.001000 
0.001000 
0.001000 
0.001000 
0.001000 
0.001000 
0.001000 
0.001000 
0.001000 
0.001000 
0.001000 
0.001000 
0.001000 
0.001000 
0.001000 
0.001000 
0.001000 
0.001000 
0.001000 
0.001000 
0.001000 
0.001000 
0.001000 
0.001000 
0.001000 
0.001000 
0.001000 
0.001000 
0.001000 
0.001000 
0.001000 
0.001000 
0.001000 
0.001000 
0.001000 
0.001000 
0.001000 
0.001018 
0.003444 
0.036960 
0.211392 
0.544934 
0.869158 
0.970036 
0.823894 
0.487443 
0.168947 
0.026818 
0.002543 
0.001011 
0.001001 
0.001118 
0.005003 
0.057589 
0.342281 
0.778343 
0.836155 
0.434540 
0.084562 
0.004872 
0.001013 
0.001000 
0.001000 
0.001000 
0.001000 
0.001000 
0.001000 
0.001000 
0.001000 
0.001000 
0.001000 
0.001000 
0.001000 
0.001000 
0.001000 
0.001000 
0.001000 
0.001000 
0.001000 
0.001000 
0.001000 
0.001000 
0.001000 
0.001000 
0.001000 
0.001000 
0.001000 
0.001000 
0.001000 
0.001000 
0.001000 
0.001000 
0.001000 
0.001000 
0.001000 
0.001000 
0.001000 
0.001000 
0.001000 
0.001000 
0.001000 
0.001000 
0.001000 
0.001000 
0.001000 
0.001000 
0.001000 
0.001000 
0.001000 
0.001000 
0.001000 
0.001000 
0.001000 
0.001000 
0.001000 
0.001000 
0.001000 
0.001000 
0.001000 
0.001000 
0.001000 
0.001000 
0.001000 
0.001000 
0.001000 
0.001000 
0.001000 
0.001000 
0.001000 
0.001000 
0.001000 
0.001000 
0.001000 
0.001000 
0.001000 
0.001000 
0.001014 
0.003079 
0.034825 
0.209751 
0.537614 
0.855638 
0.966049 
0.838294 
0.510185 
0.185057 
0.029068 
0.002585 
0.001010 
0.001000 
0.001000 
0.001000 
0.001207 
0.013949 
0.168037 
0.585920 
0.883471 
0.646965 
0.216589 
0.021724 
0.001349 
0.001000 
0.001000 
0.001000 
0.001000 
0.001000 
0.001000 
0.001000 
0.001000 
0.001000 
0.001000 
0.001000 
0.001000 
0.001000 
0.001000 
0.001000 
0.001000 
0.001000 
0.001000 
0.001000 
0.001000 
0.001000 
0.001000 
0.001000 
0.001000 
0.001000 
0.001000 
0.001000 
0.001000 
0.001000 
0.001000 
0.001000 
0.001000 
0.001000 
0.001000 
0.001000 
0.001000 
0.001000 
0.001000 
0.001000 
0.001000 
0.001000 
0.001000 
0.001000 
0.001000 
0.001000 
0.001000 
0.001000 
0.001000 
0.001000 
0.001000 
0.001000 
0.001000 
0.001000 
0.001000 
0.001000 
0.001000 
0.001000 
0.001000 
0.001000 
0.001000 
0.001000 
0.001000 
0.001000 
0.001000 
0.001000 
0.001000 
0.001000 
0.001000 
0.001000 
0.001000 
0.001000 
0.001000 
0.001000 
0.001000 
0.001013 
0.002841 
0.031148 
0.192243 
0.524507 
0.852193 
0.969884 
0.849667 
0.523519 
0.196963 
0.032546 
0.002909 
0.001012 
0.001000 
0.001000 
0.001000 
0.001000 
0.001002 
0.002969 
0.057279 
0.366654 
0.789556 
0.820448 
0.421858 
0.079092 
0.004486 
0.001009 
0.001000 
0.001000 
0.001000 
0.001000 
0.001000 
0.001000 
0.001000 
0.001000 
0.001000 
0.001000 
0.001000 
0.001000 
0.001000 
0.001000 
0.001000 
0.001000 
0.001000 
0.001000 
0.001000 
0.001000 
0.001000 
0.001000 
0.001000 
0.001000 
0.001000 
0.001000 
0.001000 
0.001000 
0.001000 
0.001000 
0.001000 
0.001000 
0.001000 
0.001000 
0.001000 
0.001000 
0.001000 
0.001000 
0.001000 
0.001000 
0.001000 
0.001000 
0.001000 
0.001000 
0.001000 
0.001000 
0.001000 
0.001000 
0.001000 
0.001000 
0.001000 
0.001000 
0.001000 
0.001000 
0.001000 
0.001000 
0.001000 
0.001000 
0.001000 
0.001000 
0.001000 
0.001000 
0.001000 
0.001000 
0.001000 
0.001000 
0.001000 
0.001000 
0.001000 
0.001000 
0.001000 
0.001000 
0.001011 
0.002688 
0.029495 
0.181957 
0.501145 
0.833271 
0.971228 
0.865148 
0.541172 
0.206667 
0.034661 
0.003171 
0.001016 
0.001000 
0.001000 
0.001000 
0.001000 
0.001000 
0.001000 
0.001156 
0.014764 
0.179526 
0.601311 
0.892439 
0.646709 
0.216654 
0.020213 
0.001258 
0.001000 
0.001000 
0.001000 
0.001000 
0.001000 
0.001000 
0.001000 
0.001000 
0.001000 
0.001000 
0.001000 
0.001000 
0.001000 
0.001000 
0.001000 
0.001000 
0.001000 
0.001000 
0.001000 
0.001000 
0.001000 
0.001000 
0.001000 
0.001000 
0.001000 
0.001000 
0.001000 
0.001000 
0.001000 
0.001000 
0.001000 
0.001000 
0.001000 
0.001000 
0.001000 
0.001000 
0.001000 
0.001000 
0.001000 
0.001000 
0.001000 
0.001000 
0.001000 
0.001000 
0.001000 
0.001000 
0.001000 
0.001000 
0.001000 
0.001000 
0.001000 
0.001000 
0.001000 
0.001000 
0.001000 
0.001000 
0.001000 
0.001000 
0.001000 
0.001000 
0.001000 
0.001000 
0.001000 
0.001000 
0.001000 
0.001000 
0.001000 
0.001000 
0.001000 
0.001000 
0.001000 
0.001008 
0.002471 
0.027490 
0.174168 
0.490296 
0.819942 
0.967355 
0.877402 
0.558837 
0.220589 
0.037541 
0.003392 
0.001017 
0.001000 
0.001000 
0.001000 
0.001000 
0.001000 
0.001000 
0.001000 
0.001003 
0.003209 
0.061514 
0.381186 
0.807042 
0.829406 
0.415029 
0.071479 
0.003796 
0.001004 
0.001000 
0.001000 
0.001000 
0.001000 
0.001000 
0.001000 
0.001000 
0.001000 
0.001000 
0.001000 
0.001000 
0.001000 
0.001000 
0.001000 
0.001000 
0.001000 
0.001000 
0.001000 
0.001000 
0.001000 
0.001000 
0.001000 
0.001000 
0.001000 
0.001000 
0.001000 
0.001000 
0.001000 
0.001000 
0.001000 
0.001000 
0.001000 
0.001000 
0.001000 
0.001000 
0.001000 
0.001000 
0.001000 
0.001000 
0.001000 
0.001000 
0.001000 
0.001000 
0.001000 
0.001000 
0.001000 
0.001000 
0.001000 
0.001000 
0.001000 
0.001000 
0.001000 
0.001000 
0.001000 
0.001000 
0.001000 
0.001000 
0.001000 
0.001000 
0.001000 
0.001000 
0.001000 
0.001000 
0.001000 
0.001000 
0.001000 
0.001000 
0.001000 
0.001000 
0.001007 
0.002213 
0.024686 
0.163868 
0.476838 
0.810933 
0.969777 
0.890119 
0.573654 
0.231491 
0.040508 
0.003711 
0.001020 
0.001000 
0.001000 
0.001000 
0.001000 
0.001000 
0.001000 
0.001000 
0.001000 
0.001000 
0.001181 
0.016050 
0.190118 
0.616793 
0.899124 
0.634259 
0.205013 
0.018241 
0.001230 
0.001000 
0.001000 
0.001000 
0.001000 
0.001000 
0.001000 
0.001000 
0.001000 
0.001000 
0.001000 
0.001000 
0.001000 
0.001000 
0.001000 
0.001000 
0.001000 
0.001000 
0.001000 
0.001000 
0.001000 
0.001000 
0.001000 
0.001000 
0.001000 
0.001000 
0.001000 
0.001000 
0.001000 
0.001000 
0.001000 
0.001000 
0.001000 
0.001000 
0.001000 
0.001000 
0.001000 
0.001000 
0.001000 
0.001000 
0.001000 
0.001000 
0.001000 
0.001000 
0.001000 
0.001000 
0.001000 
0.001000 
0.001000 
0.001000 
0.001000 
0.001000 
0.001000 
0.001000 
0.001000 
0.001000 
0.001000 
0.001000 
0.001000 
0.001000 
0.001000 
0.001000 
0.001000 
0.001000 
0.001000 
0.001000 
0.001000 
0.001000 
0.001000 
0.001005 
0.002045 
0.022172 
0.149633 
0.457288 
0.797446 
0.968795 
0.901428 
0.590209 
0.243415 
0.043069 
0.003976 
0.001023 
0.001000 
0.001000 
0.001000 
0.001000 
0.001000 
0.001000 
0.001000 
0.001000 
0.001000 
0.001000 
0.001003 
0.003466 
0.065952 
0.396143 
0.819744 
0.825436 
0.407024 
0.069932 
0.003763 
0.001004 
0.001000 
0.001000 
0.001000 
0.001000 
0.001000 
0.001000 
0.001000 
0.001000 
0.001000 
0.001000 
0.001000 
0.001000 
0.001000 
0.001000 
0.001000 
0.001000 
0.001000 
0.001000 
0.001000 
0.001000 
0.001000 
0.001000 
0.001000 
0.001000 
0.001000 
0.001000 
0.001000 
0.001000 
0.001000 
0.001000 
0.001000 
0.001000 
0.001000 
0.001000 
0.001000 
0.001000 
0.001000 
0.001000 
0.001000 
0.001000 
0.001000 
0.001000 
0.001000 
0.001000 
0.001000 
0.001000 
0.001000 
0.001000 
0.001000 
0.001000 
0.001000 
0.001000 
0.001000 
0.001000 
0.001000 
0.001000 
0.001000 
0.001000 
0.001000 
0.001000 
0.001000 
0.001000 
0.001000 
0.001000 
0.001000 
0.001000 
0.001004 
0.001861 
0.020182 
0.140618 
0.438904 
0.779583 
0.964344 
0.906147 
0.600348 
0.254224 
0.046023 
0.004272 
0.001026 
0.001000 
0.001000 
0.001000 
0.001000 
0.001000 
0.001000 
0.001000 
0.001000 
0.001000 
0.001000 
0.001000 
0.001000 
0.001209 
0.017425 
0.200589 
0.629959 
0.904339 
0.632680 
0.202719 
0.017685 
0.001215 
0.001000 
0.001000 
0.001000 
0.001000 
0.001000 
0.001000 
0.001000 
0.001000 
0.001000 
0.001000 
0.001000 
0.001000 
0.001000 
0.001000 
0.001000 
0.001000 
0.001000 
0.001000 
0.001000 
0.001000 
0.001000 
0.001000 
0.001000 
0.001000 
0.001000 
0.001000 
0.001000 
0.001000 
0.001000 
0.001000 
0.001000 
0.001000 
0.001000 
0.001000 
0.001000 
0.001000 
0.001000 
0.001000 
0.001000 
0.001000 
0.001000 
0.001000 
0.001000 
0.001000 
0.001000 
0.001000 
0.001000 
0.001000 
0.001000 
0.001000 
0.001000 
0.001000 
0.001000 
0.001000 
0.001000 
0.001000 
0.001000 
0.001000 
0.001000 
0.001000 
0.001000 
0.001000 
0.001000 
0.001000 
0.001000 
0.001003 
0.001681 
0.017738 
0.129233 
0.423685 
0.766743 
0.959941 
0.907449 
0.603539 
0.258588 
0.047863 
0.004551 
0.001029 
0.001000 
0.001000 
0.001000 
0.001000 
0.001000 
0.001000 
0.001000 
0.001000 
0.001000 
0.001000 
0.001000 
0.001000 
0.001000 
0.001004 
0.003709 
0.069269 
0.405361 
0.825161 
0.822072 
0.398465 
0.067008 
0.003594 
0.001004 
0.001000 
0.001000 
0.001000 
0.001000 
0.001000 
0.001000 
0.001000 
0.001000 
0.001000 
0.001000 
0.001000 
0.001000 
0.001000 
0.001000 
0.001000 
0.001000 
0.001000 
0.001000 
0.001000 
0.001000 
0.001000 
0.001000 
0.001000 
0.001000 
0.001000 
0.001000 
0.001000 
0.001000 
0.001000 
0.001000 
0.001000 
0.001000 
0.001000 
0.001000 
0.001000 
0.001000 
0.001000 
0.001000 
0.001000 
0.001000 
0.001000 
0.001000 
0.001000 
0.001000 
0.001000 
0.001000 
0.001000 
0.001000 
0.001000 
0.001000 
0.001000 
0.001000 
0.001000 
0.001000 
0.001000 
0.001000 
0.001000 
0.001000 
0.001000 
0.001000 
0.001000 
0.001000 
0.001000 
0.001002 
0.001544 
0.015559 
0.117672 
0.404015 
0.751173 
0.956805 
0.908188 
0.604863 
0.259809 
0.048448 
0.004668 
0.001032 
0.001000 
0.001000 
0.001000 
0.001000 
0.001000 
0.001000 
0.001000 
0.001000 
0.001000 
0.001000 
0.001000 
0.001000 
0.001000 
0.001000 
0.001000 
0.001226 
0.018129 
0.204571 
0.633986 
0.899907 
0.620436 
0.194235 
0.016925 
0.001217 
0.001000 
0.001000 
0.001000 
0.001000 
0.001000 
0.001000 
0.001000 
0.001000 
0.001000 
0.001000 
0.001000 
0.001000 
0.001000 
0.001000 
0.001000 
0.001000 
0.001000 
0.001000 
0.001000 
0.001000 
0.001000 
0.001000 
0.001000 
0.001000 
0.001000 
0.001000 
0.001000 
0.001000 
0.001000 
0.001000 
0.001000 
0.001000 
0.001000 
0.001000 
0.001000 
0.001000 
0.001000 
0.001000 
0.001000 
0.001000 
0.001000 
0.001000 
0.001000 
0.001000 
0.001000 
0.001000 
0.001000 
0.001000 
0.001000 
0.001000 
0.001000 
0.001000 
0.001000 
0.001000 