# vtk DataFile Version 1.0 
Bar_TO_3D 
ASCII 
DATASET UNSTRUCTURED_GRID 
POINTS 2821 float 
0.000000 0.000000 
0.000000 0.000000 0.333333 
0.000000 0.000000 0.666667 
0.000000 0.000000 1.000000 
0.000000 0.000000 1.333333 
0.000000 0.000000 1.666667 
0.000000 0.000000 2.000000 
0.000000 0.000000 2.333333 
0.000000 0.000000 2.666667 
0.000000 0.000000 3.000000 
0.000000 0.000000 3.333333 
0.000000 0.000000 3.666667 
0.000000 0.000000 4.000000 
0.000000 0.000000 4.333333 
0.000000 0.000000 4.666667 
0.000000 0.000000 5.000000 
0.000000 0.000000 5.333333 
0.000000 0.000000 5.666667 
0.000000 0.000000 6.000000 
0.000000 0.000000 6.333333 
0.000000 0.000000 6.666667 
0.000000 0.000000 7.000000 
0.000000 0.000000 7.333333 
0.000000 0.000000 7.666667 
0.000000 0.000000 8.000000 
0.000000 0.000000 8.333333 
0.000000 0.000000 8.666667 
0.000000 0.000000 9.000000 
0.000000 0.000000 9.333333 
0.000000 0.000000 9.666667 
0.000000 0.000000 10.000000 
0.000000 0.333333 0.000000 
0.000000 0.333333 0.333333 
0.000000 0.333333 0.666667 
0.000000 0.333333 1.000000 
0.000000 0.333333 1.333333 
0.000000 0.333333 1.666667 
0.000000 0.333333 2.000000 
0.000000 0.333333 2.333333 
0.000000 0.333333 2.666667 
0.000000 0.333333 3.000000 
0.000000 0.333333 3.333333 
0.000000 0.333333 3.666667 
0.000000 0.333333 4.000000 
0.000000 0.333333 4.333333 
0.000000 0.333333 4.666667 
0.000000 0.333333 5.000000 
0.000000 0.333333 5.333333 
0.000000 0.333333 5.666667 
0.000000 0.333333 6.000000 
0.000000 0.333333 6.333333 
0.000000 0.333333 6.666667 
0.000000 0.333333 7.000000 
0.000000 0.333333 7.333333 
0.000000 0.333333 7.666667 
0.000000 0.333333 8.000000 
0.000000 0.333333 8.333333 
0.000000 0.333333 8.666667 
0.000000 0.333333 9.000000 
0.000000 0.333333 9.333333 
0.000000 0.333333 9.666667 
0.000000 0.333333 10.000000 
0.000000 0.666667 0.000000 
0.000000 0.666667 0.333333 
0.000000 0.666667 0.666667 
0.000000 0.666667 1.000000 
0.000000 0.666667 1.333333 
0.000000 0.666667 1.666667 
0.000000 0.666667 2.000000 
0.000000 0.666667 2.333333 
0.000000 0.666667 2.666667 
0.000000 0.666667 3.000000 
0.000000 0.666667 3.333333 
0.000000 0.666667 3.666667 
0.000000 0.666667 4.000000 
0.000000 0.666667 4.333333 
0.000000 0.666667 4.666667 
0.000000 0.666667 5.000000 
0.000000 0.666667 5.333333 
0.000000 0.666667 5.666667 
0.000000 0.666667 6.000000 
0.000000 0.666667 6.333333 
0.000000 0.666667 6.666667 
0.000000 0.666667 7.000000 
0.000000 0.666667 7.333333 
0.000000 0.666667 7.666667 
0.000000 0.666667 8.000000 
0.000000 0.666667 8.333333 
0.000000 0.666667 8.666667 
0.000000 0.666667 9.000000 
0.000000 0.666667 9.333333 
0.000000 0.666667 9.666667 
0.000000 0.666667 10.000000 
0.000000 1.000000 0.000000 
0.000000 1.000000 0.333333 
0.000000 1.000000 0.666667 
0.000000 1.000000 1.000000 
0.000000 1.000000 1.333333 
0.000000 1.000000 1.666667 
0.000000 1.000000 2.000000 
0.000000 1.000000 2.333333 
0.000000 1.000000 2.666667 
0.000000 1.000000 3.000000 
0.000000 1.000000 3.333333 
0.000000 1.000000 3.666667 
0.000000 1.000000 4.000000 
0.000000 1.000000 4.333333 
0.000000 1.000000 4.666667 
0.000000 1.000000 5.000000 
0.000000 1.000000 5.333333 
0.000000 1.000000 5.666667 
0.000000 1.000000 6.000000 
0.000000 1.000000 6.333333 
0.000000 1.000000 6.666667 
0.000000 1.000000 7.000000 
0.000000 1.000000 7.333333 
0.000000 1.000000 7.666667 
0.000000 1.000000 8.000000 
0.000000 1.000000 8.333333 
0.000000 1.000000 8.666667 
0.000000 1.000000 9.000000 
0.000000 1.000000 9.333333 
0.000000 1.000000 9.666667 
0.000000 1.000000 10.000000 
0.000000 1.333333 0.000000 
0.000000 1.333333 0.333333 
0.000000 1.333333 0.666667 
0.000000 1.333333 1.000000 
0.000000 1.333333 1.333333 
0.000000 1.333333 1.666667 
0.000000 1.333333 2.000000 
0.000000 1.333333 2.333333 
0.000000 1.333333 2.666667 
0.000000 1.333333 3.000000 
0.000000 1.333333 3.333333 
0.000000 1.333333 3.666667 
0.000000 1.333333 4.000000 
0.000000 1.333333 4.333333 
0.000000 1.333333 4.666667 
0.000000 1.333333 5.000000 
0.000000 1.333333 5.333333 
0.000000 1.333333 5.666667 
0.000000 1.333333 6.000000 
0.000000 1.333333 6.333333 
0.000000 1.333333 6.666667 
0.000000 1.333333 7.000000 
0.000000 1.333333 7.333333 
0.000000 1.333333 7.666667 
0.000000 1.333333 8.000000 
0.000000 1.333333 8.333333 
0.000000 1.333333 8.666667 
0.000000 1.333333 9.000000 
0.000000 1.333333 9.333333 
0.000000 1.333333 9.666667 
0.000000 1.333333 10.000000 
0.000000 1.666667 0.000000 
0.000000 1.666667 0.333333 
0.000000 1.666667 0.666667 
0.000000 1.666667 1.000000 
0.000000 1.666667 1.333333 
0.000000 1.666667 1.666667 
0.000000 1.666667 2.000000 
0.000000 1.666667 2.333333 
0.000000 1.666667 2.666667 
0.000000 1.666667 3.000000 
0.000000 1.666667 3.333333 
0.000000 1.666667 3.666667 
0.000000 1.666667 4.000000 
0.000000 1.666667 4.333333 
0.000000 1.666667 4.666667 
0.000000 1.666667 5.000000 
0.000000 1.666667 5.333333 
0.000000 1.666667 5.666667 
0.000000 1.666667 6.000000 
0.000000 1.666667 6.333333 
0.000000 1.666667 6.666667 
0.000000 1.666667 7.000000 
0.000000 1.666667 7.333333 
0.000000 1.666667 7.666667 
0.000000 1.666667 8.000000 
0.000000 1.666667 8.333333 
0.000000 1.666667 8.666667 
0.000000 1.666667 9.000000 
0.000000 1.666667 9.333333 
0.000000 1.666667 9.666667 
0.000000 1.666667 10.000000 
0.000000 2.000000 0.000000 
0.000000 2.000000 0.333333 
0.000000 2.000000 0.666667 
0.000000 2.000000 1.000000 
0.000000 2.000000 1.333333 
0.000000 2.000000 1.666667 
0.000000 2.000000 2.000000 
0.000000 2.000000 2.333333 
0.000000 2.000000 2.666667 
0.000000 2.000000 3.000000 
0.000000 2.000000 3.333333 
0.000000 2.000000 3.666667 
0.000000 2.000000 4.000000 
0.000000 2.000000 4.333333 
0.000000 2.000000 4.666667 
0.000000 2.000000 5.000000 
0.000000 2.000000 5.333333 
0.000000 2.000000 5.666667 
0.000000 2.000000 6.000000 
0.000000 2.000000 6.333333 
0.000000 2.000000 6.666667 
0.000000 2.000000 7.000000 
0.000000 2.000000 7.333333 
0.000000 2.000000 7.666667 
0.000000 2.000000 8.000000 
0.000000 2.000000 8.333333 
0.000000 2.000000 8.666667 
0.000000 2.000000 9.000000 
0.000000 2.000000 9.333333 
0.000000 2.000000 9.666667 
0.000000 2.000000 10.000000 
0.000000 2.333333 0.000000 
0.000000 2.333333 0.333333 
0.000000 2.333333 0.666667 
0.000000 2.333333 1.000000 
0.000000 2.333333 1.333333 
0.000000 2.333333 1.666667 
0.000000 2.333333 2.000000 
0.000000 2.333333 2.333333 
0.000000 2.333333 2.666667 
0.000000 2.333333 3.000000 
0.000000 2.333333 3.333333 
0.000000 2.333333 3.666667 
0.000000 2.333333 4.000000 
0.000000 2.333333 4.333333 
0.000000 2.333333 4.666667 
0.000000 2.333333 5.000000 
0.000000 2.333333 5.333333 
0.000000 2.333333 5.666667 
0.000000 2.333333 6.000000 
0.000000 2.333333 6.333333 
0.000000 2.333333 6.666667 
0.000000 2.333333 7.000000 
0.000000 2.333333 7.333333 
0.000000 2.333333 7.666667 
0.000000 2.333333 8.000000 
0.000000 2.333333 8.333333 
0.000000 2.333333 8.666667 
0.000000 2.333333 9.000000 
0.000000 2.333333 9.333333 
0.000000 2.333333 9.666667 
0.000000 2.333333 10.000000 
0.000000 2.666667 0.000000 
0.000000 2.666667 0.333333 
0.000000 2.666667 0.666667 
0.000000 2.666667 1.000000 
0.000000 2.666667 1.333333 
0.000000 2.666667 1.666667 
0.000000 2.666667 2.000000 
0.000000 2.666667 2.333333 
0.000000 2.666667 2.666667 
0.000000 2.666667 3.000000 
0.000000 2.666667 3.333333 
0.000000 2.666667 3.666667 
0.000000 2.666667 4.000000 
0.000000 2.666667 4.333333 
0.000000 2.666667 4.666667 
0.000000 2.666667 5.000000 
0.000000 2.666667 5.333333 
0.000000 2.666667 5.666667 
0.000000 2.666667 6.000000 
0.000000 2.666667 6.333333 
0.000000 2.666667 6.666667 
0.000000 2.666667 7.000000 
0.000000 2.666667 7.333333 
0.000000 2.666667 7.666667 
0.000000 2.666667 8.000000 
0.000000 2.666667 8.333333 
0.000000 2.666667 8.666667 
0.000000 2.666667 9.000000 
0.000000 2.666667 9.333333 
0.000000 2.666667 9.666667 
0.000000 2.666667 10.000000 
0.000000 3.000000 0.000000 
0.000000 3.000000 0.333333 
0.000000 3.000000 0.666667 
0.000000 3.000000 1.000000 
0.000000 3.000000 1.333333 
0.000000 3.000000 1.666667 
0.000000 3.000000 2.000000 
0.000000 3.000000 2.333333 
0.000000 3.000000 2.666667 
0.000000 3.000000 3.000000 
0.000000 3.000000 3.333333 
0.000000 3.000000 3.666667 
0.000000 3.000000 4.000000 
0.000000 3.000000 4.333333 
0.000000 3.000000 4.666667 
0.000000 3.000000 5.000000 
0.000000 3.000000 5.333333 
0.000000 3.000000 5.666667 
0.000000 3.000000 6.000000 
0.000000 3.000000 6.333333 
0.000000 3.000000 6.666667 
0.000000 3.000000 7.000000 
0.000000 3.000000 7.333333 
0.000000 3.000000 7.666667 
0.000000 3.000000 8.000000 
0.000000 3.000000 8.333333 
0.000000 3.000000 8.666667 
0.000000 3.000000 9.000000 
0.000000 3.000000 9.333333 
0.000000 3.000000 9.666667 
0.000000 3.000000 10.000000 
0.000000 3.333333 0.000000 
0.000000 3.333333 0.333333 
0.000000 3.333333 0.666667 
0.000000 3.333333 1.000000 
0.000000 3.333333 1.333333 
0.000000 3.333333 1.666667 
0.000000 3.333333 2.000000 
0.000000 3.333333 2.333333 
0.000000 3.333333 2.666667 
0.000000 3.333333 3.000000 
0.000000 3.333333 3.333333 
0.000000 3.333333 3.666667 
0.000000 3.333333 4.000000 
0.000000 3.333333 4.333333 
0.000000 3.333333 4.666667 
0.000000 3.333333 5.000000 
0.000000 3.333333 5.333333 
0.000000 3.333333 5.666667 
0.000000 3.333333 6.000000 
0.000000 3.333333 6.333333 
0.000000 3.333333 6.666667 
0.000000 3.333333 7.000000 
0.000000 3.333333 7.333333 
0.000000 3.333333 7.666667 
0.000000 3.333333 8.000000 
0.000000 3.333333 8.333333 
0.000000 3.333333 8.666667 
0.000000 3.333333 9.000000 
0.000000 3.333333 9.333333 
0.000000 3.333333 9.666667 
0.000000 3.333333 10.000000 
0.000000 3.666667 0.000000 
0.000000 3.666667 0.333333 
0.000000 3.666667 0.666667 
0.000000 3.666667 1.000000 
0.000000 3.666667 1.333333 
0.000000 3.666667 1.666667 
0.000000 3.666667 2.000000 
0.000000 3.666667 2.333333 
0.000000 3.666667 2.666667 
0.000000 3.666667 3.000000 
0.000000 3.666667 3.333333 
0.000000 3.666667 3.666667 
[...]
CELL_DATA 2700 
FIELD FieldData 2 
density 1 2700 float
0.723513 
0.723513 
0.723513 
0.723513 
0.723513 
0.723513 
0.723513 
0.723513 
0.723513 
0.723512 
0.723512 
0.723512 
0.723512 
0.723512 
0.723512 
0.723512 
0.723512 
0.723512 
0.723512 
0.723512 
0.723512 
0.723513 
0.723513 
0.723513 
0.723513 
0.723513 
0.723513 
0.723513 
0.723513 
0.723513 
0.723513 
0.723513 
0.723513 
0.723513 
0.723513 
0.723513 
0.723513 
0.723513 
0.723513 
0.723513 
0.723512 
0.723512 
0.723512 
0.723512 
0.723512 
0.723512 
0.723512 
0.723512 
0.723512 
0.723512 
0.723513 
0.723513 
0.723513 
0.723513 
0.723513 
0.723513 
0.723513 
0.723513 
0.723513 
0.723513 
0.723513 
0.723513 
0.723513 
0.723513 
0.723513 
0.723513 
0.723513 
0.723513 
0.723513 
0.723513 
0.723512 
0.723512 
0.723512 
0.723512 
0.723512 
0.723512 
0.723512 
0.723512 
0.723512 
0.723512 
0.723513 
0.723513 
0.723513 
0.723513 
0.723513 
0.723513 
0.723513 
0.723513 
0.723513 
0.723513 
0.723513 
0.723513 
0.723513 
0.723513 
0.723513 
0.723513 
0.723513 
0.723513 
0.723513 
0.723513 
0.723512 
0.723512 
0.723512 
0.723512 
0.723512 
0.723512 
0.723512 
0.723512 
0.723512 
0.723512 
0.723513 
0.723513 
0.723513 
0.723513 
0.723513 
0.723513 
0.723513 
0.723513 
0.723513 
0.723513 
0.723512 
0.723513 
0.723513 
0.723513 
0.723513 
0.723513 
0.723513 
0.723513 
0.723513 
0.723513 
0.723512 
0.723512 
0.723512 
0.723512 
0.723512 
0.723512 
0.723512 
0.723512 
0.723512 
0.723512 
0.723513 
0.723513 
0.723513 
0.723513 
0.723513 
0.723513 
0.723513 
0.723513 
0.723513 
0.723512 
0.723512 
0.723513 
0.723513 
0.723513 
0.723513 
0.723513 
0.723513 
0.723513 
0.723513 
0.723513 
0.723512 
0.723512 
0.723512 
0.723512 
0.723512 
0.723512 
0.723512 
0.723512 
0.723512 
0.723512 
0.723513 
0.723513 
0.723513 
0.723513 
0.723513 
0.723513 
0.723513 
0.723513 
0.723513 
0.723512 
0.723512 
0.723513 
0.723513 
0.723513 
0.723513 
0.723513 
0.723513 
0.723513 
0.723513 
0.723513 
0.723512 
0.723512 
0.723512 
0.723512 
0.723512 
0.723512 
0.723512 
0.723512 
0.723512 
0.723512 
0.723513 
0.723513 
0.723513 
0.723513 
0.723513 
0.723513 
0.723513 
0.723513 
0.723513 
0.723512 
0.723512 
0.723513 
0.723513 
0.723513 
0.723513 
0.723513 
0.723513 
0.723513 
0.723513 
0.723513 
0.723512 
0.723512 
0.723512 
0.723512 
0.723512 
0.723512 
0.723512 
0.723512 
0.723512 
0.723512 
0.723513 
0.723513 
0.723513 
0.723513 
0.723513 
0.723513 
0.723513 
0.723513 
0.723513 
0.723512 
0.723512 
0.723513 
0.723513 
0.723513 
0.723513 
0.723513 
0.723513 
0.723513 
0.723513 
0.723513 
0.723512 
0.723512 
0.723512 
0.723512 
0.723512 
0.723512 
0.723512 
0.723512 
0.723512 
0.723512 
0.723513 
0.723513 
0.723513 
0.723513 
0.723513 
0.723513 
0.723513 
0.723513 
0.723513 
0.723512 
0.723512 
0.723513 
0.723513 
0.723513 
0.723513 
0.723513 
0.723513 
0.723513 
0.723513 
0.723512 
0.723512 
0.723512 
0.723512 
0.723512 
0.723512 
0.723512 
0.723512 
0.723512 
0.723512 
0.723512 
0.723512 
0.723513 
0.723513 
0.723513 
0.723513 
0.723513 
0.723513 
0.723513 
0.723513 
0.723512 
0.723512 
0.723513 
0.723513 
0.723513 
0.723513 
0.723513 
0.723513 
0.723513 
0.723513 
0.723512 
0.723512 
0.723512 
0.723512 
0.723512 
0.723512 
0.723512 
0.723512 
0.723512 
0.723512 
0.723512 
0.723512 
0.723513 
0.723513 
0.723513 
0.723513 
0.723513 
0.723513 
0.723513 
0.723513 
0.723512 
0.723512 
0.723513 
0.723513 
0.723513 
0.723513 
0.723513 
0.723513 
0.723513 
0.723512 
0.723512 
0.723512 
0.723512 
0.723512 
0.723512 
0.723512 
0.723512 
0.723512 
0.723512 
0.723512 
0.723512 
0.723512 
0.723512 
0.723513 
0.723513 
0.723513 
0.723513 
0.723513 
0.723513 
0.723513 
0.723512 
0.723512 
0.723512 
0.723513 
0.723513 
0.723513 
0.723513 
0.723513 
0.723512 
0.723512 
0.723512 
0.723512 
0.723512 
0.723512 
0.723512 
0.723512 
0.723512 
0.723512 
0.723512 
0.723512 
0.723512 
0.723512 
0.723512 
0.723512 
0.723513 
0.723513 
0.723513 
0.723513 
0.723513 
0.723512 
0.723512 
0.723512 
0.723512 
0.723512 
0.723513 
0.723513 
0.723512 
0.723512 
0.723512 
0.723512 
0.723512 
0.723512 
0.723512 
0.723512 
0.723512 
0.723512 
0.723512 
0.723512 
0.723512 
0.723512 
0.723512 
0.723512 
0.723512 
0.723512 
0.723512 
0.723512 
0.723513 
0.723513 
0.723512 
0.723512 
0.723512 
0.723512 
0.723512 
0.723512 
0.723512 
0.723512 
0.723512 
0.723512 
0.723512 
0.723512 
0.723512 
0.723512 
0.723512 
0.723512 
0.723512 
0.723512 
0.723512 
0.723512 
0.723512 
0.723512 
0.723512 
0.723512 
0.723512 
0.723512 
0.723512 
0.723512 
0.723512 
0.723512 
0.723512 
0.723512 
0.723512 
0.723512 
0.723512 
0.723512 
0.723512 
0.723512 
0.723512 
0.723512 
0.723512 
0.723512 
0.723512 
0.723512 
0.723512 
0.723512 
0.723512 
0.723512 
0.723512 
0.723512 
0.723512 
0.723512 
0.723512 
0.723512 
0.723512 
0.723512 
0.723512 
0.723512 
0.723512 
0.723512 
0.723512 
0.723512 
0.723512 
0.723512 
0.723512 
0.723512 
0.723512 
0.723512 
0.723512 
0.723512 
0.723512 
0.723512 
0.723512 
0.723512 
0.723512 
0.723512 
0.723512 
0.723512 
0.723512 
0.723512 
0.723512 
0.723512 
0.723512 
0.723512 
0.723512 
0.723512 
0.723512 
0.723512 
0.723512 
0.723512 
0.723512 
0.723512 
0.723512 
0.723512 
0.723512 
0.723512 
0.723512 
0.723512 
0.723512 
0.723512 
0.723512 
0.723512 
0.723512 
0.723512 
0.723512 
0.723512 
0.723512 
0.723512 
0.723512 
0.723512 
0.723512 
0.723512 
0.723512 
0.723512 
0.723512 
0.723512 
0.723512 
0.723512 
0.723512 
0.723512 
0.723512 
0.723512 
0.723512 
0.723512 
0.723512 
0.723512 
0.723512 
0.723512 
0.723512 
0.723512 
0.723512 
0.723512 
0.723512 
0.723512 
0.723512 
0.723512 
0.723512 
0.723512 
0.723512 
0.723512 
0.723512 
0.723512 
0.723512 
0.723512 
0.723512 
0.723512 
0.723512 
0.723512 
0.723512 
0.723512 
0.723512 
0.723512 
0.723512 
0.723512 
0.723512 
0.723512 
0.723512 
0.723512 
0.723512 
0.723512 
0.723512 
0.723512 
0.723512 
0.723512 
0.723512 
0.723512 
0.723512 
0.723512 
0.723512 
0.723512 
0.723512 
0.723512 
0.723512 
0.723512 
0.723512 
0.723512 
0.723512 
0.723512 
0.723512 
0.723512 
0.723512 
0.723512 
0.723512 
0.723512 
0.723512 
0.723512 
0.723512 
0.723512 
0.723512 
0.723512 
0.723512 
0.723512 
0.723512 
0.723512 
0.723512 
0.723512 
0.723512 
0.723512 
0.723512 
0.723512 
0.723512 
0.723512 
0.723512 
0.723512 
0.723512 
0.723512 
0.723512 
0.723512 
0.723512 
0.723512 
0.723512 
0.723512 
0.723512 
0.723512 
0.723512 
0.723512 
0.723512 
0.723512 
0.723512 
0.723512 
0.723512 
0.723512 
0.723512 
0.723512 
0.723512 
0.723512 
0.723511 
0.723511 
0.723511 
0.723511 
0.723512 
0.723512 
0.723512 
0.723512 
0.723512 
0.723512 
0.723512 
0.723512 
0.723512 
0.723512 
0.723512 
0.723512 
0.723512 
0.723512 
0.723512 
0.723512 
0.723512 
0.723512 
0.723512 
0.723512 
0.723512 
0.723512 
0.723512 
0.723512 
0.723512 
0.723511 
0.723511 
0.723511 
0.723511 
0.723511 
0.723512 
0.723512 
0.723512 
0.723512 
0.723512 
0.723512 
0.723512 
0.723512 
0.723512 
0.723512 
0.723512 
0.723512 
0.723512 
0.723512 
0.723512 
0.723512 
0.723512 
0.723512 
0.723512 
0.723512 
0.723512 
0.723512 
0.723512 
0.723512 
0.723512 
0.723511 
0.723511 
0.723511 
0.723511 
0.723511 
0.723511 
0.723512 
0.723512 
0.723512 
0.723512 
0.723512 
0.723512 
0.723512 
0.723512 
0.723512 
0.723512 
0.723512 
0.723512 
0.723512 
0.723512 
0.723512 
0.723512 
0.723512 
0.723512 
0.723512 
0.723512 
0.723512 
0.723512 
0.723512 
0.723511 
0.723511 
0.723511 
0.723511 
0.723511 
0.723511 
0.723511 
0.723511 
0.723512 
0.723512 
0.723512 
0.723512 
0.723512 
0.723512 
0.723512 
0.723512 
0.723512 
0.723512 
0.723512 
0.723512 
0.723512 
0.723512 
0.723512 
0.723512 
0.723512 
0.723512 
0.723512 
0.723512 
0.723512 
0.723511 
0.723511 
0.723511 
0.723511 
0.723510 
0.723510 
0.723511 
0.723511 
0.723511 
0.723511 
0.723512 
0.723512 
0.723512 
0.723512 
0.723512 
0.723512 
0.723512 
0.723512 
0.723512 
0.723512 
0.723512 
0.723512 
0.723512 
0.723512 
0.723512 
0.723512 
0.723512 
0.723512 
0.723512 
0.723512 
0.723511 
0.723511 
0.723511 
0.723510 
0.723510 
0.723510 
0.723510 
0.723511 
0.723511 
0.723511 
0.723512 
0.723512 
0.723512 
0.723512 
0.723512 
0.723512 
0.723512 
0.723512 
0.723512 
0.723512 
0.723512 
0.723512 
0.723512 
0.723512 
0.723512 
0.723512 
0.723512 
0.723512 
0.723512 
0.723511 
0.723511 
0.723511 
0.723510 
0.723510 
0.723510 
0.723510 
0.723510 
0.723510 
0.723511 
0.723511 
0.723511 
0.723512 
0.723512 
0.723512 
0.723512 
0.723512 
0.723512 
0.723512 
0.723512 
0.723512 
0.723511 
0.723512 
0.723512 
0.723512 
0.723512 
0.723512 
0.723512 
0.723512 
0.723511 
0.723511 
0.723511 
0.723510 
0.723510 
0.723509 
0.723509 
0.723509 
0.723509 
0.723510 
0.723510 
0.723511 
0.723511 
0.723511 
0.723512 
0.723512 
0.723512 
0.723512 
0.723512 
0.723512 
0.723512 
0.723511 
0.723511 
0.723511 
0.723512 
0.723512 
0.723512 
0.723512 
0.723512 
0.723511 
0.723511 
0.723511 
0.723510 
0.723510 
0.723509 
0.723509 
0.723508 
0.723508 
0.723509 
0.723509 
0.723510 
0.723511 
0.723511 
0.723511 
0.723511 
0.723512 
0.723512 
0.723512 
0.723512 
0.723511 
0.723511 
0.723511 
0.723511 
0.723511 
0.723511 
0.723511 
0.723511 
0.723511 
0.723511 
0.723511 
0.723511 
0.723511 
0.723510 
0.723509 
0.723509 
0.723508 
0.723507 
0.723507 
0.723508 
0.723509 
0.723509 
0.723510 
0.723511 
0.723511 
0.723511 
0.723511 
0.723511 
0.723511 
0.723511 
0.723511 
0.723511 
0.723511 
0.723510 
0.723511 
0.723511 
0.723511 
0.723511 
0.723511 
0.723511 
0.723511 
0.723511 
0.723510 
0.723509 
0.723509 
0.723507 
0.723506 
0.723506 
0.723506 
0.723507 
0.723508 
0.723509 
0.723510 
0.723510 
0.723511 
0.723511 
0.723511 
0.723511 
0.723511 
0.723511 
0.723511 
0.723510 
0.723510 
0.723509 
0.723510 
0.723510 
0.723511 
0.723511 
0.723511 
0.723511 
0.723510 
0.723510 
0.723510 
0.723509 
0.723508 
0.723506 
0.723504 
0.723503 
0.723503 
0.723505 
0.723506 
0.723508 
0.723509 
0.723510 
0.723510 
0.723511 
0.723511 
0.723511 
0.723511 
0.723511 
0.723510 
0.723509 
0.723508 
0.723508 
0.723509 
0.723510 
0.723510 
0.723510 
0.723510 
0.723510 
0.723510 
0.723510 
0.723509 
0.723508 
0.723506 
0.723503 
0.723499 
0.723496 
0.723497 
0.723501 
0.723504 
0.723507 
0.723508 
0.723509 
0.723510 
0.723510 
0.723510 
0.723510 
0.723510 
0.723510 
0.723509 
0.723499 
0.723484 
0.723505 
0.723507 
0.723509 
0.723510 
0.723510 
0.723510 
0.723510 
0.723509 
0.723509 
0.723508 
0.723506 
0.723503 
0.723487 
0.723447 
0.723412 
0.723427 
0.723472 
0.723498 
0.723504 
0.723507 
0.723508 
0.723509 
0.723510 
0.723510 
0.723510 
0.723510 
0.723509 
0.723489 
0.723280 
0.722989 
0.723408 
0.723467 
0.723506 
0.723508 
0.723509 
0.723509 
0.723509 
0.723509 
0.723508 
0.723506 
0.723503 
0.723471 
0.723347 
0.723138 
0.722995 
0.723058 
0.723266 
0.723440 
0.723499 
0.723505 
0.723507 
0.723508 
0.723509 
0.723509 
0.723509 
0.723509 
0.723496 
0.723119 
0.721308 
0.719075 
0.722850 
0.723156 
0.723433 
0.723506 
0.723508 
0.723508 
0.723508 
0.723507 
0.723506 
0.723503 
0.723470 
0.723281 
0.722819 
0.722204 
0.721823 
0.722000 
0.722596 
0.723157 
0.723440 
0.723501 
0.723506 
0.723507 
0.723508 
0.723508 
0.723508 
0.723507 
0.723234 
0.720249 
0.706614 
0.688773 
0.721048 
0.722057 
0.723018 
0.723447 
0.723505 
0.723506 
0.723506 
0.723506 
0.723503 
0.723482 
0.723301 
0.722706 
0.721606 
0.720350 
0.719659 
0.720007 
0.721174 
0.722437 
0.723204 
0.723469 
0.723503 
0.723506 
0.723507 
0.723507 
0.723507 
0.723419 
0.721490 
0.699573 
0.646049 
0.591927 
0.717014 
0.719399 
0.721827 
0.723148 
0.723479 
0.723504 
0.723504 
0.723503 
0.723494 
0.723369 
0.722817 
0.721529 
0.719541 
0.717551 
0.716520 
0.717073 
0.718921 
0.721090 
0.722643 
0.723335 
0.723494 
0.723504 
0.723506 
0.723506 
0.723502 
0.722990 
0.709741 
0.642635 
0.524397 
0.395910 
0.709255 
0.714161 
0.719332 
0.722331 
0.723330 
0.723496 
0.723500 
0.723497 
0.723431 
0.723029 
0.721865 
0.719622 
0.716615 
0.713773 
0.712356 
0.713130 
0.715766 
0.719014 
0.721624 
0.723000 
0.723444 
0.723501 
0.723504 
0.723504 
0.723443 
0.720363 
0.679858 
0.554098 
0.363004 
0.239838 
0.677034 
0.697933 
0.714764 
0.720787 
0.722921 
0.723445 
0.723494 
0.723470 
0.723236 
0.722371 
0.720356 
0.717021 
0.712754 
0.708703 
0.706591 
0.707642 
0.711398 
0.716088 
0.720018 
0.722372 
0.723298 
0.723492 
0.723502 
0.723502 
0.723290 
0.710597 
0.632877 
0.447585 
0.252006 
0.161972 
0.592235 
0.650997 
0.700150 
0.718333 
0.722252 
0.723313 
0.723477 
0.723386 
0.722864 
0.721368 
0.718392 
0.713727 
0.707598 
0.701245 
0.697492 
0.698931 
0.704802 
0.711879 
0.717686 
0.721350 
0.722996 
0.723453 
0.723499 
0.723500 
0.723111 
0.697474 
0.584102 
0.350746 
0.188545 
0.135197 
0.431090 
0.564983 
0.667990 
0.714226 
0.721448 
0.723139 
0.723434 
0.723225 
0.722326 
0.720105 
0.716021 
0.709524 
0.700021 
0.682549 
0.662734 
0.664682 
0.687101 
0.705140 
0.714184 
0.719734 
0.722460 
0.723353 
0.723494 
0.723497 
0.723016 
0.691404 
0.551857 
0.302756 
0.159943 
0.124840 
0.283935 
0.451164 
0.618443 
0.703414 
0.720604 
0.722957 
0.723342 
0.722972 
0.721606 
0.718567 
0.713119 
0.703816 
0.675755 
0.614626 
0.557758 
0.560004 
0.619525 
0.680894 
0.708474 
0.717108 
0.721427 
0.723063 
0.723432 
0.723461 
0.722998 
0.691314 
0.543874 
0.286526 
0.150204 
0.119305 
0.188916 
0.341786 
0.565583 
0.688339 
0.719585 
0.722521 
0.722994 
0.722427 
0.720524 
0.716557 
0.709443 
0.690018 
0.619242 
0.485968 
0.360873 
0.362055 
0.487495 
0.619836 
0.691952 
0.712713 
0.719401 
0.722198 
0.723024 
0.723133 
0.722724 
0.691006 
0.542590 
0.282261 
0.143962 
0.111470 
0.141891 
0.281409 
0.526905 
0.679568 
0.718036 
0.721320 
0.721902 
0.721173 
0.718762 
0.713869 
0.704892 
0.668685 
0.552214 
0.343852 
0.209975 
0.208696 
0.328720 
0.527185 
0.656011 
0.704694 
0.715809 
0.720256 
0.721771 
0.722007 
0.721560 
0.689605 
0.549541 
0.293557 
0.136937 
0.091250 
0.114052 
0.258067 
0.518904 
0.676687 
0.715703 
0.719035 
0.719737 
0.718977 
0.716237 
0.710607 
0.699597 
0.651582 
0.502376 
0.276231 
0.152999 
0.145162 
0.228730 
0.415949 
0.595898 
0.685242 
0.710202 
0.716977 
0.719383 
0.719772 
0.719154 
0.694550 
0.584251 
0.332465 
0.133170 
0.063040 
0.092352 
0.256590 
0.534806 
0.679140 
0.712521 
0.715831 
0.716721 
0.716075 
0.713211 
0.707041 
0.693679 
0.639545 
0.475636 
0.249669 
0.142904 
0.127180 
0.170192 
0.300124 
0.508611 
0.646814 
0.700535 
0.712306 
0.715967 
0.716620 
0.715794 
0.705341 
0.630684 
0.403550 
0.131852 
0.037827 
0.072111 
0.278963 
0.559912 
0.686955 
0.708407 
0.711932 
0.713168 
0.712755 
0.709919 
0.703361 
0.687282 
0.626453 
0.456192 
0.237511 
0.138472 
0.120355 
0.137636 
0.215326 
0.400648 
0.589871 
0.681902 
0.706021 
0.711623 
0.712792 
0.711804 
0.708668 
0.660125 
0.453676 
0.141037 
0.029374 
0.072247 
0.289760 
0.572318 
0.688058 
0.703179 
0.707407 
0.709168 
0.709106 
0.706427 
0.699626 
0.681371 
0.615835 
0.441063 
0.228127 
0.134358 
0.117622 
0.125700 
0.179715 
0.329924 
0.539335 
0.658758 
0.698293 
0.706334 
0.708307 
0.707213 
0.703598 
0.669502 
0.500238 
0.178912 
0.037563 
0.084783 
0.292410 
0.553138 
0.673809 
0.696628 
0.702204 
0.704688 
0.705119 
0.702740 
0.695894 
0.677446 
0.611782 
0.437096 
0.224633 
0.136471 
0.133211 
0.160700 
0.224898 
0.364878 
0.544599 
0.651699 
0.690640 
0.700273 
0.703056 
0.701905 
0.697523 
0.675282 
0.541890 
0.271754 
0.076496 
0.123562 
0.275787 
0.516004 
0.649508 
0.688382 
0.696208 
0.699694 
0.700785 
0.698875 
0.692247 
0.675589 
0.614283 
0.452536 
0.255706 
0.182024 
0.209133 
0.285090 
0.387725 
0.500552 
0.602326 
0.662296 
0.684777 
0.693880 
0.696962 
0.695728 
0.690582 
0.667951 
0.561109 
0.337840 
0.157201 
0.148302 
0.258826 
0.461413 
0.618051 
0.676915 
0.689261 
0.694165 
0.696120 
0.694870 
0.688787 
0.674564 
0.626951 
0.507945 
0.359697 
0.317204 
0.389059 
0.485585 
0.561537 
0.615448 
0.651092 
0.670379 
0.680363 
0.687303 
0.689947 
0.688526 
0.682756 
0.651134 
0.547816 
0.353135 
0.202079 
0.151625 
0.219806 
0.388360 
0.568989 
0.656862 
0.681114 
0.688113 
0.691198 
0.690829 
0.685650 
0.673737 
0.645956 
0.583065 
0.514632 
0.508378 
0.559505 
0.612682 
0.644086 
0.658791 
0.664658 
0.669658 
0.675105 
0.679731 
0.681594 
0.680068 
0.674104 
0.644256 
0.544205 
0.370721 
0.230037 
0.139373 
0.181201 
0.301178 
0.495569 
0.623717 
0.671193 
0.681609 
0.686185 
0.686948 
0.682999 
0.673247 
0.657768 
0.633937 
0.611151 
0.614113 
0.637346 
0.653093 
0.657864 
0.659608 
0.660637 
0.662480 
0.665629 
0.668987 
0.670754 
0.669849 
0.664739 
0.644669 
0.556723 
0.391588 
0.247836 
0.133827 
0.153341 
0.230481 
0.406849 
0.573527 
0.653882 
0.674769 
0.681315 
0.683441 
0.680953 
0.673250 
0.661619 
0.650174 
0.644620 
0.646507 
0.650947 
0.652736 
0.650724 
0.646072 
0.640836 
0.638861 
0.642624 
0.649261 
0.654534 
0.656759 
0.654677 
0.634503 
0.535340 
0.359810 
0.212276 
0.133809 
0.138909 
0.182869 
0.317339 
0.515271 
0.629807 
0.667716 
0.676849 
0.680474 
0.679528 
0.673746 
0.664700 
0.656087 
0.651509 
0.650775 
0.649655 
0.643409 
0.625088 
0.597006 
0.574335 
0.566687 
0.573099 
0.591812 
0.616014 
0.635382 
0.643424 
0.614396 
0.485415 
0.270960 
0.143546 
0.133800 
0.133953 
0.158574 
0.263073 
0.459886 
0.606410 
0.660420 
0.673041 
0.678178 
0.678677 
0.674655 
0.667540 
0.660327 
0.655358 
0.651519 
0.643547 
0.614331 
0.550763 
0.476662 
0.422634 
0.403099 
0.415771 
0.456768 
0.521325 
0.586746 
0.626029 
0.592784 
0.430423 
0.215143 
0.110462 
0.133793 
0.133808 
0.149226 
0.226688 
0.408286 
0.576814 
0.650798 
0.670140 
0.676691 
0.678427 
0.675924 
0.670300 
0.663848 
0.657987 
0.650503 
0.628074 
0.554761 
0.428948 
0.302534 
0.243486 
0.225776 
0.235941 
0.278343 
0.373372 
0.498159 
0.584050 
0.549984 
0.370602 
0.176861 
0.103723 
0.133444 
0.133615 
0.141932 
0.194799 
0.345546 
0.535363 
0.637716 
0.668316 
0.676116 
0.678826 
0.677518 
0.673013 
0.666971 
0.660042 
0.648287 
0.603994 
0.485430 
0.306931 
0.194207 
0.154029 
0.147686 
0.151212 
0.174780 
0.244304 
0.392455 
0.515559 
0.484412 
0.285666 
0.144991 
0.099395 
0.127314 
0.130323 
0.134975 
0.168633 
0.291767 
0.497637 
0.626732 
0.667590 
0.676429 
0.679828 
0.679351 
0.675627 
0.669806 
0.661892 
0.644551 
0.577031 
0.421159 
0.242563 
0.154868 
0.133925 
0.133831 
0.133840 
0.139748 
0.181081 
0.304827 
0.457711 
0.430980 
0.240285 
0.125026 
0.098730 
0.094046 
0.104339 
0.121089 
0.153605 
0.265577 
0.477656 
0.622542 
0.667839 
0.677470 
0.681272 
0.681260 
0.678031 
0.672355 
0.663750 
0.636993 
0.543150 
0.361330 
0.202533 
0.144074 
0.133814 
0.133798 
0.133799 
0.133833 
0.157364 
0.265148 
0.428878 
0.415951 
0.229173 
0.124008 
0.103684 
0.040519 
0.053570 
0.076088 
0.120902 
0.245089 
0.470823 
0.621787 
0.668692 
0.678896 
0.682837 
0.683000 
0.680054 
0.674517 
0.665592 
0.628617 
0.508370 
0.305027 
0.175320 
0.137195 
0.133792 
0.133775 
0.133719 
0.133566 
0.152525 
0.252260 
0.419100 
0.415802 
0.233292 
0.128414 
0.107981 
0.015811 
0.019408 
0.030233 
0.064422 
0.193796 
0.453767 
0.619963 
0.669131 
0.679973 
0.683974 
0.684181 
0.681449 
0.676097 
0.667192 
0.625966 
0.493715 
0.286177 
0.163911 
0.134151 
0.133700 
0.133597 
0.133260 
0.132603 
0.150363 
0.246979 
0.412244 
0.413393 
0.236297 
0.132257 
0.111706 
0.011639 
0.012295 
0.014458 
0.026645 
0.122938 
0.412783 
0.614610 
0.667823 
0.679729 
0.683992 
0.684404 
0.681951 
0.676857 
0.668224 
0.632214 
0.514449 
0.310285 
0.177053 
0.136888 
0.133188 
0.132885 
0.131982 
0.130406 
0.146339 
0.238346 
0.401053 
0.407857 
0.237986 
0.135572 
0.114993 
0.011096 
0.011186 
0.011726 
0.015776 
0.069518 
0.349712 
0.597302 
0.664000 
0.677608 
0.682543 
0.683413 
0.681362 
0.676572 
0.668354 
0.643337 
0.552809 
0.370854 
0.204557 
0.142810 
0.131850 
0.131319 
0.129728 
0.127123 
0.140706 
0.225528 
0.383130 
0.402860 
0.246445 
0.141712 
0.117936 
0.011096 
0.011096 
0.011183 
0.012919 
0.040185 
0.283700 
0.569042 
0.657506 
0.673591 
0.679549 
0.681079 
0.679497 
0.675030 
0.667285 