# vtk DataFile Version 1.0 
Bar_TO_3D 
ASCII 
DATASET UNSTRUCTURED_GRID 
POINTS 2821 float 
0.000000 0.000000 
0.000000 0.000000 0.333333 
0.000000 0.000000 0.666667 
0.000000 0.000000 1.000000 
0.000000 0.000000 1.333333 
0.000000 0.000000 1.666667 
0.000000 0.000000 2.000000 
0.000000 0.000000 2.333333 
0.000000 0.000000 2.666667 
0.000000 0.000000 3.000000 
0.000000 0.000000 3.333333 
0.000000 0.000000 3.666667 
0.000000 0.000000 4.000000 
0.000000 0.000000 4.333333 
0.000000 0.000000 4.666667 
0.000000 0.000000 5.000000 
0.000000 0.000000 5.333333 
0.000000 0.000000 5.666667 
0.000000 0.000000 6.000000 
0.000000 0.000000 6.333333 
0.000000 0.000000 6.666667 
0.000000 0.000000 7.000000 
0.000000 0.000000 7.333333 
0.000000 0.000000 7.666667 
0.000000 0.000000 8.000000 
0.000000 0.000000 8.333333 
0.000000 0.000000 8.666667 
0.000000 0.000000 9.000000 
0.000000 0.000000 9.333333 
0.000000 0.000000 9.666667 
0.000000 0.000000 10.000000 
0.000000 0.333333 0.000000 
0.000000 0.333333 0.333333 
0.000000 0.333333 0.666667 
0.000000 0.333333 1.000000 
0.000000 0.333333 1.333333 
0.000000 0.333333 1.666667 
0.000000 0.333333 2.000000 
0.000000 0.333333 2.333333 
0.000000 0.333333 2.666667 
0.000000 0.333333 3.000000 
0.000000 0.333333 3.333333 
0.000000 0.333333 3.666667 
0.000000 0.333333 4.000000 
0.000000 0.333333 4.333333 
0.000000 0.333333 4.666667 
0.000000 0.333333 5.000000 
0.000000 0.333333 5.333333 
0.000000 0.333333 5.666667 
0.000000 0.333333 6.000000 
0.000000 0.333333 6.333333 
0.000000 0.333333 6.666667 
0.000000 0.333333 7.000000 
0.000000 0.333333 7.333333 
0.000000 0.333333 7.666667 
0.000000 0.333333 8.000000 
0.000000 0.333333 8.333333 
0.000000 0.333333 8.666667 
0.000000 0.333333 9.000000 
0.000000 0.333333 9.333333 
0.000000 0.333333 9.666667 
0.000000 0.333333 10.000000 
0.000000 0.666667 0.000000 
0.000000 0.666667 0.333333 
0.000000 0.666667 0.666667 
0.000000 0.666667 1.000000 
0.000000 0.666667 1.333333 
0.000000 0.666667 1.666667 
0.000000 0.666667 2.000000 
0.000000 0.666667 2.333333 
0.000000 0.666667 2.666667 
0.000000 0.666667 3.000000 
0.000000 0.666667 3.333333 
0.000000 0.666667 3.666667 
0.000000 0.666667 4.000000 
0.000000 0.666667 4.333333 
0.000000 0.666667 4.666667 
0.000000 0.666667 5.000000 
0.000000 0.666667 5.333333 
0.000000 0.666667 5.666667 
0.000000 0.666667 6.000000 
0.000000 0.666667 6.333333 
0.000000 0.666667 6.666667 
0.000000 0.666667 7.000000 
0.000000 0.666667 7.333333 
0.000000 0.666667 7.666667 
0.000000 0.666667 8.000000 
0.000000 0.666667 8.333333 
0.000000 0.666667 8.666667 
0.000000 0.666667 9.000000 
0.000000 0.666667 9.333333 
0.000000 0.666667 9.666667 
0.000000 0.666667 10.000000 
0.000000 1.000000 0.000000 
0.000000 1.000000 0.333333 
0.000000 1.000000 0.666667 
0.000000 1.000000 1.000000 
0.000000 1.000000 1.333333 
0.000000 1.000000 1.666667 
0.000000 1.000000 2.000000 
0.000000 1.000000 2.333333 
0.000000 1.000000 2.666667 
0.000000 1.000000 3.000000 
0.000000 1.000000 3.333333 
0.000000 1.000000 3.666667 
0.000000 1.000000 4.000000 
0.000000 1.000000 4.333333 
0.000000 1.000000 4.666667 
0.000000 1.000000 5.000000 
0.000000 1.000000 5.333333 
0.000000 1.000000 5.666667 
0.000000 1.000000 6.000000 
0.000000 1.000000 6.333333 
0.000000 1.000000 6.666667 
0.000000 1.000000 7.000000 
0.000000 1.000000 7.333333 
0.000000 1.000000 7.666667 
0.000000 1.000000 8.000000 
0.000000 1.000000 8.333333 
0.000000 1.000000 8.666667 
0.000000 1.000000 9.000000 
0.000000 1.000000 9.333333 
0.000000 1.000000 9.666667 
0.000000 1.000000 10.000000 
0.000000 1.333333 0.000000 
0.000000 1.333333 0.333333 
0.000000 1.333333 0.666667 
0.000000 1.333333 1.000000 
0.000000 1.333333 1.333333 
0.000000 1.333333 1.666667 
0.000000 1.333333 2.000000 
0.000000 1.333333 2.333333 
0.000000 1.333333 2.666667 
0.000000 1.333333 3.000000 
0.000000 1.333333 3.333333 
0.000000 1.333333 3.666667 
0.000000 1.333333 4.000000 
0.000000 1.333333 4.333333 
0.000000 1.333333 4.666667 
0.000000 1.333333 5.000000 
0.000000 1.333333 5.333333 
0.000000 1.333333 5.666667 
0.000000 1.333333 6.000000 
0.000000 1.333333 6.333333 
0.000000 1.333333 6.666667 
0.000000 1.333333 7.000000 
0.000000 1.333333 7.333333 
0.000000 1.333333 7.666667 
0.000000 1.333333 8.000000 
0.000000 1.333333 8.333333 
0.000000 1.333333 8.666667 
0.000000 1.333333 9.000000 
0.000000 1.333333 9.333333 
0.000000 1.333333 9.666667 
0.000000 1.333333 10.000000 
0.000000 1.666667 0.000000 
0.000000 1.666667 0.333333 
0.000000 1.666667 0.666667 
0.000000 1.666667 1.000000 
0.000000 1.666667 1.333333 
0.000000 1.666667 1.666667 
0.000000 1.666667 2.000000 
0.000000 1.666667 2.333333 
0.000000 1.666667 2.666667 
0.000000 1.666667 3.000000 
0.000000 1.666667 3.333333 
0.000000 1.666667 3.666667 
0.000000 1.666667 4.000000 
0.000000 1.666667 4.333333 
0.000000 1.666667 4.666667 
0.000000 1.666667 5.000000 
0.000000 1.666667 5.333333 
0.000000 1.666667 5.666667 
0.000000 1.666667 6.000000 
0.000000 1.666667 6.333333 
0.000000 1.666667 6.666667 
0.000000 1.666667 7.000000 
0.000000 1.666667 7.333333 
0.000000 1.666667 7.666667 
0.000000 1.666667 8.000000 
0.000000 1.666667 8.333333 
0.000000 1.666667 8.666667 
0.000000 1.666667 9.000000 
0.000000 1.666667 9.333333 
0.000000 1.666667 9.666667 
0.000000 1.666667 10.000000 
0.000000 2.000000 0.000000 
0.000000 2.000000 0.333333 
0.000000 2.000000 0.666667 
0.000000 2.000000 1.000000 
0.000000 2.000000 1.333333 
0.000000 2.000000 1.666667 
0.000000 2.000000 2.000000 
0.000000 2.000000 2.333333 
0.000000 2.000000 2.666667 
0.000000 2.000000 3.000000 
0.000000 2.000000 3.333333 
0.000000 2.000000 3.666667 
0.000000 2.000000 4.000000 
0.000000 2.000000 4.333333 
0.000000 2.000000 4.666667 
0.000000 2.000000 5.000000 
0.000000 2.000000 5.333333 
0.000000 2.000000 5.666667 
0.000000 2.000000 6.000000 
0.000000 2.000000 6.333333 
0.000000 2.000000 6.666667 
0.000000 2.000000 7.000000 
0.000000 2.000000 7.333333 
0.000000 2.000000 7.666667 
0.000000 2.000000 8.000000 
0.000000 2.000000 8.333333 
0.000000 2.000000 8.666667 
0.000000 2.000000 9.000000 
0.000000 2.000000 9.333333 
0.000000 2.000000 9.666667 
0.000000 2.000000 10.000000 
0.000000 2.333333 0.000000 
0.000000 2.333333 0.333333 
0.000000 2.333333 0.666667 
0.000000 2.333333 1.000000 
0.000000 2.333333 1.333333 
0.000000 2.333333 1.666667 
0.000000 2.333333 2.000000 
0.000000 2.333333 2.333333 
0.000000 2.333333 2.666667 
0.000000 2.333333 3.000000 
0.000000 2.333333 3.333333 
0.000000 2.333333 3.666667 
0.000000 2.333333 4.000000 
0.000000 2.333333 4.333333 
0.000000 2.333333 4.666667 
0.000000 2.333333 5.000000 
0.000000 2.333333 5.333333 
0.000000 2.333333 5.666667 
0.000000 2.333333 6.000000 
0.000000 2.333333 6.333333 
0.000000 2.333333 6.666667 
0.000000 2.333333 7.000000 
0.000000 2.333333 7.333333 
0.000000 2.333333 7.666667 
0.000000 2.333333 8.000000 
0.000000 2.333333 8.333333 
0.000000 2.333333 8.666667 
0.000000 2.333333 9.000000 
0.000000 2.333333 9.333333 
0.000000 2.333333 9.666667 
0.000000 2.333333 10.000000 
0.000000 2.666667 0.000000 
0.000000 2.666667 0.333333 
0.000000 2.666667 0.666667 
0.000000 2.666667 1.000000 
0.000000 2.666667 1.333333 
0.000000 2.666667 1.666667 
0.000000 2.666667 2.000000 
0.000000 2.666667 2.333333 
0.000000 2.666667 2.666667 
0.000000 2.666667 3.000000 
0.000000 2.666667 3.333333 
0.000000 2.666667 3.666667 
0.000000 2.666667 4.000000 
0.000000 2.666667 4.333333 
0.000000 2.666667 4.666667 
0.000000 2.666667 5.000000 
0.000000 2.666667 5.333333 
0.000000 2.666667 5.666667 
0.000000 2.666667 6.000000 
0.000000 2.666667 6.333333 
0.000000 2.666667 6.666667 
0.000000 2.666667 7.000000 
0.000000 2.666667 7.333333 
0.000000 2.666667 7.666667 
0.000000 2.666667 8.000000 
0.000000 2.666667 8.333333 
0.000000 2.666667 8.666667 
0.000000 2.666667 9.000000 
0.000000 2.666667 9.333333 
0.000000 2.666667 9.666667 
0.000000 2.666667 10.000000 
0.000000 3.000000 0.000000 
0.000000 3.000000 0.333333 
0.000000 3.000000 0.666667 
0.000000 3.000000 1.000000 
0.000000 3.000000 1.333333 
0.000000 3.000000 1.666667 
0.000000 3.000000 2.000000 
0.000000 3.000000 2.333333 
0.000000 3.000000 2.666667 
0.000000 3.000000 3.000000 
0.000000 3.000000 3.333333 
0.000000 3.000000 3.666667 
0.000000 3.000000 4.000000 
0.000000 3.000000 4.333333 
0.000000 3.000000 4.666667 
0.000000 3.000000 5.000000 
0.000000 3.000000 5.333333 
0.000000 3.000000 5.666667 
0.000000 3.000000 6.000000 
0.000000 3.000000 6.333333 
0.000000 3.000000 6.666667 
0.000000 3.000000 7.000000 
0.000000 3.000000 7.333333 
0.000000 3.000000 7.666667 
0.000000 3.000000 8.000000 
0.000000 3.000000 8.333333 
0.000000 3.000000 8.666667 
0.000000 3.000000 9.000000 
0.000000 3.000000 9.333333 
0.000000 3.000000 9.666667 
0.000000 3.000000 10.000000 
0.000000 3.333333 0.000000 
0.000000 3.333333 0.333333 
0.000000 3.333333 0.666667 
0.000000 3.333333 1.000000 
0.000000 3.333333 1.333333 
0.000000 3.333333 1.666667 
0.000000 3.333333 2.000000 
0.000000 3.333333 2.333333 
0.000000 3.333333 2.666667 
0.000000 3.333333 3.000000 
0.000000 3.333333 3.333333 
0.000000 3.333333 3.666667 
0.000000 3.333333 4.000000 
0.000000 3.333333 4.333333 
0.000000 3.333333 4.666667 
0.000000 3.333333 5.000000 
0.000000 3.333333 5.333333 
0.000000 3.333333 5.666667 
0.000000 3.333333 6.000000 
0.000000 3.333333 6.333333 
0.000000 3.333333 6.666667 
0.000000 3.333333 7.000000 
0.000000 3.333333 7.333333 
0.000000 3.333333 7.666667 
0.000000 3.333333 8.000000 
0.000000 3.333333 8.333333 
0.000000 3.333333 8.666667 
0.000000 3.333333 9.000000 
0.000000 3.333333 9.333333 
0.000000 3.333333 9.666667 
0.000000 3.333333 10.000000 
0.000000 3.666667 0.000000 
0.000000 3.666667 0.333333 
0.000000 3.666667 0.666667 
0.000000 3.666667 1.000000 
0.000000 3.666667 1.333333 
0.000000 3.666667 1.666667 
0.000000 3.666667 2.000000 
0.000000 3.666667 2.333333 
0.000000 3.666667 2.666667 
0.000000 3.666667 3.000000 
0.000000 3.666667 3.333333 
0.000000 3.666667 3.666667 
[...]
CELL_DATA 2700 
FIELD FieldData 2 
density 1 2700 float
1.000000 
1.000000 
1.000000 
1.000000 
1.000000 
1.000000 
0.994274 
0.010000 
0.010000 
0.010000 
0.010000 
0.010000 
0.010000 
0.010000 
0.010000 
0.010000 
0.010000 
0.010000 
0.010000 
0.010000 
0.010000 
0.010000 
0.010000 
0.994052 
1.000000 
1.000000 
1.000000 
1.000000 
1.000000 
1.000000 
1.000000 
1.000000 
1.000000 
1.000000 
1.000000 
1.000000 
0.999993 
0.010000 
0.010000 
0.010000 
0.010000 
0.010000 
0.010000 
0.010000 
0.010000 
0.010000 
0.010000 
0.010000 
0.010000 
0.010000 
0.010000 
0.010000 
0.010000 
0.999994 
1.000000 
1.000000 
1.000000 
1.000000 
1.000000 
1.000000 
1.000000 
1.000000 
1.000000 
1.000000 
1.000000 
1.000000 
1.000000 
0.964618 
0.010000 
0.010000 
0.010000 
0.010000 
0.010000 
0.010000 
0.010000 
0.010000 
0.010000 
0.010000 
0.010000 
0.010000 
0.010000 
0.010000 
0.976519 
1.000000 
1.000000 
1.000000 
1.000000 
1.000000 
1.000000 
0.999989 
1.000000 
1.000000 
1.000000 
1.000000 
1.000000 
1.000000 
1.000000 
0.999990 
0.010003 
0.010000 
0.010000 
0.010000 
0.010000 
0.010000 
0.010000 
0.010000 
0.010000 
0.010000 
0.010000 
0.010000 
0.010000 
0.010000 
0.999997 
1.000000 
1.000000 
1.000000 
1.000000 
1.000000 
1.000000 
0.999811 
1.000000 
1.000000 
1.000000 
1.000000 
1.000000 
1.000000 
1.000000 
0.999997 
0.941520 
0.010000 
0.010000 
0.010000 
0.010000 
0.010000 
0.010000 
0.010000 
0.010000 
0.010000 
0.010000 
0.010000 
0.010000 
0.891827 
1.000000 
1.000000 
1.000000 
1.000000 
1.000000 
1.000000 
1.000000 
0.999979 
1.000000 
1.000000 
1.000000 
1.000000 
1.000000 
0.999985 
0.987879 
0.999535 
0.999629 
0.010002 
0.010000 
0.010000 
0.010000 
0.010000 
0.010000 
0.010000 
0.010000 
0.010000 
0.010000 
0.010000 
0.010000 
0.997966 
1.000000 
0.999999 
0.999994 
1.000000 
1.000000 
1.000000 
1.000000 
1.000000 
1.000000 
1.000000 
1.000000 
1.000000 
1.000000 
0.979793 
0.010308 
0.990341 
0.999995 
0.983852 
0.010000 
0.010000 
0.010000 
0.010000 
0.010000 
0.010000 
0.010000 
0.010000 
0.010000 
0.010000 
0.010000 
0.999988 
0.999999 
0.995082 
0.723714 
0.999927 
1.000000 
1.000000 
1.000000 
1.000000 
1.000000 
1.000000 
1.000000 
1.000000 
1.000000 
0.987155 
0.010002 
0.962225 
1.000000 
0.999996 
0.010000 
0.010000 
0.010000 
0.010000 
0.010000 
0.010000 
0.010000 
0.010000 
0.010000 
0.010000 
0.937686 
1.000000 
1.000000 
0.980923 
0.010673 
0.970957 
1.000000 
1.000000 
1.000000 
1.000000 
1.000000 
1.000000 
1.000000 
1.000000 
1.000000 
0.998171 
0.010001 
0.407365 
0.999999 
1.000000 
0.974791 
0.010000 
0.010000 
0.010000 
0.010000 
0.010000 
0.010000 
0.010000 
0.010000 
0.010000 
0.999812 
1.000000 
1.000000 
0.964990 
0.010166 
0.978996 
1.000000 
1.000000 
1.000000 
1.000000 
1.000000 
1.000000 
1.000000 
1.000000 
1.000000 
0.999575 
0.010000 
0.010000 
0.995183 
1.000000 
0.999983 
0.010000 
0.010000 
0.010000 
0.010000 
0.010000 
0.010000 
0.010000 
0.010000 
0.010000 
0.999999 
1.000000 
1.000000 
0.529421 
0.010002 
0.996552 
1.000000 
1.000000 
1.000000 
1.000000 
1.000000 
1.000000 
1.000000 
1.000000 
1.000000 
0.999724 
0.010000 
0.010000 
0.010000 
0.999983 
1.000000 
0.975833 
0.010000 
0.010000 
0.010000 
0.010000 
0.010000 
0.010000 
0.010000 
0.911188 
1.000000 
1.000000 
0.999995 
0.010022 
0.010000 
0.998902 
1.000000 
1.000000 
1.000000 
1.000000 
1.000000 
1.000000 
1.000000 
1.000000 
1.000000 
0.999934 
0.010000 
0.010000 
0.010000 
0.998751 
1.000000 
0.999996 
0.010000 
0.010000 
0.010000 
0.010000 
0.010000 
0.010000 
0.010000 
0.999747 
1.000000 
1.000000 
0.999663 
0.010000 
0.010000 
0.998561 
1.000000 
1.000000 
1.000000 
1.000000 
1.000000 
1.000000 
1.000000 
1.000000 
1.000000 
0.999966 
0.010000 
0.010000 
0.010000 
0.690750 
1.000000 
1.000000 
0.978947 
0.010000 
0.010000 
0.010000 
0.010000 
0.010000 
0.010000 
0.999999 
1.000000 
1.000000 
0.780845 
0.010000 
0.010000 
0.999675 
1.000000 
1.000000 
1.000000 
1.000000 
1.000000 
1.000000 
1.000000 
1.000000 
1.000000 
0.999971 
0.010000 
0.010000 
0.010000 
0.010000 
0.999988 
1.000000 
0.999997 
0.010000 
0.010000 
0.010000 
0.010000 
0.010000 
0.924607 
1.000000 
1.000000 
0.999984 
0.010000 
0.010000 
0.010000 
0.999908 
1.000000 
1.000000 
1.000000 
1.000000 
1.000000 
1.000000 
1.000000 
1.000000 
1.000000 
0.999960 
0.010000 
0.010000 
0.010000 
0.010000 
0.898414 
1.000000 
1.000000 
0.979449 
0.010000 
0.010000 
0.010000 
0.010000 
0.999784 
1.000000 
1.000000 
0.998367 
0.010000 
0.010000 
0.010000 
0.999958 
1.000000 
1.000000 
1.000000 
1.000000 
1.000000 
1.000000 
1.000000 
1.000000 
1.000000 
0.999961 
0.010000 
0.010000 
0.010000 
0.010000 
0.010000 
0.999988 
1.000000 
0.999994 
0.010000 
0.010000 
0.010000 
0.010000 
0.999998 
1.000000 
1.000000 
0.992582 
0.010000 
0.010000 
0.010000 
0.999962 
1.000000 
1.000000 
1.000000 
1.000000 
1.000000 
1.000000 
1.000000 
1.000000 
1.000000 
0.999961 
0.010000 
0.010000 
0.010000 
0.010000 
0.010000 
0.910954 
1.000000 
1.000000 
0.990720 
0.010000 
0.010000 
0.987032 
1.000000 
1.000000 
1.000000 
0.287472 
0.010000 
0.010000 
0.010000 
0.999963 
1.000000 
1.000000 
1.000000 
1.000000 
1.000000 
1.000000 
1.000000 
1.000000 
1.000000 
0.999957 
0.010000 
0.010000 
0.010000 
0.010000 
0.010000 
0.010000 
0.999995 
1.000000 
1.000000 
0.999510 
0.998716 
1.000000 
1.000000 
1.000000 
0.999940 
0.010000 
0.010000 
0.010000 
0.010000 
0.999960 
1.000000 
1.000000 
1.000000 
1.000000 
1.000000 
1.000000 
1.000000 
1.000000 
1.000000 
0.999954 
0.010000 
0.010000 
0.010000 
0.010000 
0.010000 
0.010000 
0.981187 
1.000000 
1.000000 
1.000000 
0.999999 
1.000000 
1.000000 
1.000000 
0.999831 
0.010000 
0.010000 
0.010000 
0.010000 
0.999962 
1.000000 
1.000000 
1.000000 
1.000000 
1.000000 
1.000000 
1.000000 
1.000000 
1.000000 
0.999957 
0.010000 
0.010000 
0.010000 
0.010000 
0.010000 
0.010000 
0.010000 
0.999996 
1.000000 
1.000000 
0.999991 
0.999947 
1.000000 
1.000000 
0.999525 
0.010000 
0.010000 
0.010000 
0.010000 
0.999965 
1.000000 
1.000000 
1.000000 
1.000000 
1.000000 
1.000000 
1.000000 
1.000000 
1.000000 
0.999955 
0.010000 
0.010000 
0.010000 
0.010000 
0.010000 
0.010000 
0.010000 
0.971172 
1.000000 
1.000000 
0.999900 
0.994404 
0.999979 
0.999988 
0.929443 
0.010000 
0.010000 
0.010000 
0.010000 
0.999965 
1.000000 
1.000000 
1.000000 
1.000000 
1.000000 
1.000000 
1.000000 
1.000000 
1.000000 
0.999955 
0.010000 
0.010000 
0.010000 
0.010000 
0.010000 
0.010000 
0.010000 
0.010001 
0.999996 
1.000000 
0.999999 
0.999956 
0.999997 
0.999896 
0.010001 
0.010000 
0.010000 
0.010000 
0.010000 
0.999966 
1.000000 
1.000000 
1.000000 
1.000000 
1.000000 
1.000000 
1.000000 
1.000000 
1.000000 
0.999949 
0.010000 
0.010000 
0.010000 
0.010000 
0.010000 
0.010000 
0.010000 
0.010000 
0.931265 
0.999999 
1.000000 
1.000000 
1.000000 
0.998922 
0.010000 
0.010000 
0.010000 
0.010000 
0.010000 
0.999926 
1.000000 
1.000000 
1.000000 
1.000000 
1.000000 
1.000000 
1.000000 
1.000000 
1.000000 
0.999943 
0.010000 
0.010000 
0.010000 
0.010000 
0.010000 
0.010000 
0.010000 
0.010000 
0.010000 
0.931283 
0.999992 
1.000000 
0.999999 
0.754291 
0.010000 
0.010000 
0.010000 
0.010000 
0.010000 
0.999770 
1.000000 
1.000000 
1.000000 
1.000000 
1.000000 
1.000000 
1.000000 
1.000000 
1.000000 
0.999940 
0.010000 
0.010000 
0.010000 
0.010000 
0.010000 
0.010000 
0.010000 
0.010000 
0.010000 
0.010081 
0.997660 
0.999920 
0.999182 
0.012628 
0.010000 
0.010000 
0.010000 
0.010000 
0.010000 
0.999835 
1.000000 
1.000000 
1.000000 
1.000000 
1.000000 
1.000000 
1.000000 
1.000000 
1.000000 
0.999942 
0.010000 
0.010000 
0.010000 
0.010000 
0.010000 
0.010000 
0.010000 
0.010000 
0.010000 
0.956242 
0.996634 
0.986287 
0.941862 
0.434871 
0.010000 
0.010000 
0.010000 
0.010000 
0.010000 
0.999966 
1.000000 
1.000000 
1.000000 
1.000000 
1.000000 
1.000000 
1.000000 
1.000000 
1.000000 
0.999945 
0.010000 
0.010000 
0.010000 
0.010000 
0.010000 
0.010000 
0.010000 
0.010000 
0.997537 
0.999919 
0.964704 
0.010003 
0.010431 
0.869135 
0.829096 
0.010002 
0.010000 
0.010000 
0.010000 
0.999614 
1.000000 
1.000000 
1.000000 
1.000000 
1.000000 
1.000000 
1.000000 
1.000000 
1.000000 
0.999942 
0.010000 
0.010000 
0.010000 
0.010000 
0.010000 
0.010000 
0.010000 
0.997168 
0.999988 
0.998075 
0.010000 
0.010000 
0.010000 
0.010003 
0.887264 
0.942206 
0.063039 
0.010000 
0.010000 
0.926614 
1.000000 
1.000000 
1.000000 
1.000000 
1.000000 
1.000000 
1.000000 
1.000000 
1.000000 
0.999942 
0.010000 
0.010000 
0.010000 
0.010000 
0.010000 
0.010000 
0.996567 
0.999976 
0.997542 
0.010000 
0.010000 
0.010000 
0.010000 
0.010000 
0.010000 
0.098208 
0.957640 
0.424756 
0.010468 
0.877433 
1.000000 
1.000000 
1.000000 
1.000000 
1.000000 
1.000000 
1.000000 
1.000000 
1.000000 
0.999939 
0.010000 
0.010000 
0.010000 
0.010000 
0.010000 
0.997338 
0.999981 
0.996393 
0.010000 
0.010000 
0.010000 
0.010000 
0.010000 
0.010000 
0.010000 
0.010000 
0.010309 
0.772753 
0.853747 
0.998380 
0.999999 
1.000000 
1.000000 
1.000000 
1.000000 
1.000000 
1.000000 
1.000000 
1.000000 
0.999874 
0.010000 
0.010000 
0.010000 
0.010000 
0.995828 
0.999977 
0.997137 
0.010000 
0.010000 
0.010000 
0.010000 
0.010000 
0.010000 
0.010000 
0.010000 
0.010000 
0.010000 
0.010000 
0.503469 
0.998804 
0.999995 
0.999998 
1.000000 
1.000000 
1.000000 
1.000000 
1.000000 
1.000000 
1.000000 
0.999048 
0.010000 
0.010000 
0.010000 
0.997993 
0.999975 
0.995874 
0.010000 
0.010000 
0.010000 
0.010000 
0.010000 
0.010000 
0.010000 
0.010000 
0.010000 
0.010000 
0.010000 
0.010000 
0.010000 
0.966501 
0.999965 
0.999980 
0.999939 
0.998566 
1.000000 
1.000000 
1.000000 
1.000000 
1.000000 
0.970216 
0.010000 
0.010000 
0.995946 
0.999985 
0.996551 
0.010000 
0.010000 
0.010000 
0.010000 
0.010000 
0.010000 
0.010000 
0.010000 
0.010000 
0.010000 
0.010000 
0.010000 
0.010000 
0.010000 
0.910013 
0.999996 
0.999998 
0.999818 
0.990776 
1.000000 
1.000000 
1.000000 
1.000000 
0.999993 
0.655177 
0.010168 
0.929195 
0.999933 
0.997179 
0.010000 
0.010000 
0.010000 
0.010000 
0.010000 
0.010000 
0.010000 
0.010000 
0.010000 
0.010000 
0.010000 
0.010000 
0.010000 
0.010000 
0.010000 
0.996547 
1.000000 
1.000000 
0.999844 
0.886583 
1.000000 
1.000000 
1.000000 
0.999997 
0.958535 
0.248199 
0.898149 
0.999187 
0.994845 
0.010000 
0.010000 
0.010000 
0.010000 
0.010000 
0.010000 
0.010000 
0.010000 
0.010000 
0.010000 
0.010000 
0.010000 
0.010000 
0.010000 
0.010000 
0.010000 
0.999807 
1.000000 
1.000000 
0.999682 
0.648705 
1.000000 
1.000000 
1.000000 
0.999807 
0.865698 
0.925712 
0.994194 
0.985431 
0.010001 
0.010000 
0.010000 
0.010000 
0.010000 
0.010000 
0.010000 
0.010000 
0.010000 
0.010000 
0.010000 
0.010000 
0.010000 
0.010000 
0.010000 
0.010000 
0.010000 
0.999796 
1.000000 
1.000000 
0.999797 
0.442628 
1.000000 
1.000000 
1.000000 
1.000000 
0.999878 
0.998357 
0.961357 
0.010001 
0.010000 
0.010000 
0.010000 
0.010000 
0.010000 
0.010000 
0.010000 
0.010000 
0.010000 
0.010000 
0.010000 
0.010000 
0.010000 
0.010000 
0.010000 
0.010000 
0.010000 
0.999419 
1.000000 
1.000000 
0.999843 
0.187120 
0.999984 
1.000000 
1.000000 
1.000000 
0.999997 
0.964026 
0.010000 
0.010000 
0.010000 
0.010000 
0.010000 
0.010000 
0.010000 
0.010000 
0.010000 
0.010000 
0.010000 
0.010000 
0.010000 
0.010000 
0.010000 
0.010000 
0.010000 
0.010000 
0.010000 
0.999987 
1.000000 
1.000000 
0.999360 
0.010001 
0.999261 
0.999999 
1.000000 
1.000000 
0.999728 
0.010000 
0.010000 
0.010000 
0.010000 
0.010000 
0.010000 
0.010000 
0.010000 
0.010000 
0.010000 
0.010000 
0.010000 
0.010000 
0.010000 
0.010000 
0.010000 
0.010000 
0.010000 
0.010000 
0.468735 
1.000000 
1.000000 
1.000000 
0.991846 
0.010000 
0.988962 
0.999997 
1.000000 
1.000000 
0.994841 
0.010000 
0.010000 
0.010000 
0.010000 
0.010000 
0.010000 
0.010000 
0.010000 
0.010000 
0.010000 
0.010000 
0.010000 
0.010000 
0.010000 
0.010000 
0.010000 
0.010000 
0.010000 
0.010000 
0.992423 
1.000000 
1.000000 
1.000000 
0.922153 
0.010000 
0.494133 
0.999946 
1.000000 
1.000000 
0.999969 
0.010000 
0.010000 
0.010000 
0.010000 
0.010000 
0.010000 
0.010000 
0.010000 
0.010000 
0.010000 
0.010000 
0.010000 
0.010000 
0.010000 
0.010000 
0.010000 
0.010000 
0.010000 
0.010000 
0.990254 
1.000000 
1.000000 
0.999997 
0.690117 
0.010000 
0.010000 
0.996933 
1.000000 
1.000000 
1.000000 
0.382212 
0.010000 
0.010000 
0.010000 
0.010000 
0.010000 
0.010000 
0.010000 
0.010000 
0.010000 
0.010000 
0.010000 
0.010000 
0.010000 
0.010000 
0.010000 
0.010000 
0.010000 
0.010000 
0.957119 
1.000000 
1.000000 
0.999997 
0.654018 
0.010000 
0.010000 
0.898592 
1.000000 
1.000000 
1.000000 
0.927820 
0.010000 
0.010000 
0.010000 
0.010000 
0.010000 
0.010000 
0.010000 
0.010000 
0.010000 
0.010000 
0.010000 
0.010000 
0.010000 
0.010000 
0.010000 
0.010000 
0.010000 
0.010000 
0.996385 
1.000000 
1.000000 
0.999997 
0.307008 
0.010000 
0.010000 
0.653356 
0.999999 
1.000000 
1.000000 
0.985547 
0.010000 
0.010000 
0.010000 
0.010000 
0.010000 
0.010000 
0.010000 
0.010000 
0.010000 
0.010000 
0.010000 
0.010000 
0.010000 
0.010000 
0.010000 
0.010000 
0.010000 
0.010000 
0.999986 
1.000000 
1.000000 
0.999909 
0.010000 
0.010000 
0.010000 
0.229711 
0.999996 
1.000000 
1.000000 
0.999947 
0.010000 
0.010000 
0.010000 
0.010000 
0.010000 
0.010000 
0.010000 
0.010000 
0.010000 
0.010000 
0.010000 
0.010000 
0.010000 
0.010000 
0.010000 
0.010000 
0.010000 
0.268539 
0.999997 
1.000000 
1.000000 
0.990256 
0.010000 
0.010000 
0.010000 
0.010000 
0.999939 
1.000000 
1.000000 
1.000000 
0.467207 
0.010000 
0.010000 
0.010000 
0.010000 
0.010000 
0.010000 
0.010000 
0.010000 
0.010000 
0.010000 
0.010000 
0.010000 
0.010000 
0.010000 
0.010000 
0.010000 
0.660513 
0.999942 
0.999786 
0.999817 
0.853888 
0.010000 
0.010000 
0.010000 
0.010000 
0.994949 
1.000000 
1.000000 
1.000000 
0.997036 
0.010000 
0.010000 
0.010000 
0.010000 
0.010000 
0.010000 
0.010000 
0.010000 
0.010000 
0.010000 
0.010000 
0.010000 
0.010000 
0.010000 
0.010000 
0.010000 
0.993948 
0.998096 
0.804746 
0.967405 
0.899623 
0.010000 
0.010000 
0.010000 
0.010000 
0.490120 
1.000000 
1.000000 
1.000000 
0.999994 
0.010000 
0.010000 
0.010000 
0.010000 
0.010000 
0.010000 
0.010000 
0.010000 
0.010000 
0.010000 
0.010000 
0.010000 
0.010000 
0.010000 
0.010000 
0.581774 
0.999966 
0.990661 
0.015826 
0.922751 
0.984866 
0.010000 
0.010000 
0.010000 
0.010000 
0.010000 
0.999883 
1.000000 
1.000000 
1.000000 
0.169039 
0.010000 
0.010000 
0.010000 
0.010000 
0.010000 
0.010000 
0.010000 
0.010000 
0.010000 
0.010000 
0.010000 
0.010000 
0.010000 
0.010000 
0.999844 
0.999992 
0.527753 
0.010001 
0.978432 
0.999644 
0.010328 
0.010000 
0.010000 
0.010000 
0.010000 
0.936354 
1.000000 
1.000000 
1.000000 
0.505950 
0.010000 
0.010000 
0.010000 
0.010000 
0.010000 
0.010000 
0.010000 
0.010000 
0.010000 
0.010000 
0.010000 
0.010000 
0.010000 
0.576107 
0.999998 
0.999713 
0.010000 
0.010000 
0.986472 
0.999969 
0.292285 
0.010000 
0.010000 
0.010000 
0.010000 
0.820086 
1.000000 
1.000000 
1.000000 
0.916331 
0.010000 
0.010000 
0.010000 
0.010000 
0.010000 
0.010000 
0.010000 
0.010000 
0.010000 
0.010000 
0.010000 
0.010000 
0.010000 
0.999713 
0.999997 
0.700104 
0.010000 
0.010000 
0.925450 
0.999964 
0.523883 
0.010000 
0.010000 
0.010000 
0.010000 
0.328591 
0.999999 
1.000000 
1.000000 
0.999909 
0.010000 
0.010000 
0.010000 
0.010000 
0.010000 
0.010000 
0.010000 
0.010000 
0.010000 
0.010000 
0.010000 
0.010000 
0.523582 
0.999997 
0.999848 
0.010000 
0.010000 
0.010000 
0.712995 
0.999889 
0.560656 
0.010000 
0.010000 
0.010000 
0.010000 
0.010000 
0.999935 
1.000000 
1.000000 
1.000000 
0.236517 
0.010000 
0.010000 
0.010000 
0.010000 
0.010000 
0.010000 
0.010000 
0.010000 
0.010000 
0.010000 
0.010000 
0.999789 
0.999998 
0.714507 
0.010000 
0.010000 
0.010000 
0.524280 
0.999914 
0.816434 
0.010000 
0.010000 
0.010000 
0.010000 
0.010000 
0.991595 
1.000000 
1.000000 
1.000000 
0.547503 
0.010000 
0.010000 
0.010000 
0.010000 
0.010000 
0.010000 
0.010000 
0.010000 
0.010000 
0.010000 
0.518969 
0.999997 
0.999844 
0.010000 
0.010000 
0.010000 
0.010000 
0.083782 
0.999910 
0.970830 
0.010000 
0.010000 
0.010000 
0.010000 
0.010000 
0.498498 
1.000000 
1.000000 
1.000000 
0.819615 
0.010000 
0.010000 
0.010000 
0.010000 
0.010000 
0.010000 
0.010000 
0.010000 
0.010000 
0.010000 
0.999826 
0.999998 
0.636918 
0.010000 
0.010000 
0.010000 
0.010000 
0.010004 
0.999419 
0.994676 
0.010006 
0.010000 
0.010000 
0.010000 
0.010000 
0.010000 
0.999829 
1.000000 
1.000000 
0.996191 
0.010000 
0.010000 
0.010000 
0.010000 
0.010000 
0.010000 
0.010000 
0.010000 
0.010000 
0.602152 
0.999997 
0.999876 
0.010000 
0.010000 
0.010000 
0.010000 
0.010000 
0.010000 
0.992021 
0.996060 
0.149909 
0.010000 
0.010000 
0.010000 
0.010000 
0.010000 
0.910175 
1.000000 
1.000000 
0.999877 
0.436642 
0.010000 
0.010000 
0.010000 
0.010000 
0.010000 
0.010000 
0.010000 
0.010000 
0.998815 
0.999991 
0.727294 
0.010000 
0.010000 
0.010000 
0.010000 
0.010000 
0.010000 
0.952117 
0.996385 
0.403484 
0.010000 
0.010000 
0.010000 
0.010000 
0.010000 
0.606124 
0.999999 
1.000000 
0.999564 
0.963799 
0.114710 
0.010000 
0.010000 
0.010000 
0.010000 
0.010000 
0.010000 
0.523251 
0.999683 
0.995429 
0.010000 
0.010000 
0.010000 
0.010000 
0.010000 
0.010000 
0.010000 
0.898324 
0.993880 
0.454816 
0.010000 
0.010000 
0.010000 
0.010000 
0.010000 
0.537342 
0.999999 
0.999994 
0.978122 
0.786046 
0.912491 
0.012637 
0.010000 
0.010000 
0.010000 
0.010000 
0.109952 
0.995103 
0.994871 
0.317301 
0.010000 
0.010000 
0.010000 
0.010000 
0.010000 
0.010000 
0.010000 
0.602487 
0.992176 
0.716414 
0.010000 
0.010000 
0.010000 
0.010000 
0.010000 
0.339120 
0.999999 
0.999995 
0.711628 
0.014071 
0.766837 
0.916088 
0.010031 
0.010000 
0.010000 
0.010047 
0.976818 
0.995504 
0.887638 
0.013289 
0.010000 
0.010000 
0.010000 
0.010000 
0.010000 
0.010000 
0.010000 
0.190788 
0.987200 
0.996746 
0.010000 
0.010000 
0.010000 
0.010000 
0.010000 
0.247362 
1.000000 
1.000000 
0.748087 
0.010000 
0.010031 
0.909353 
0.800168 
0.010767 
0.010017 
0.427519 
0.972885 
0.929960 
0.433648 
0.104283 
0.058330 
0.014224 
0.010052 
0.010001 
0.010000 
0.010000 
0.010003 
0.121616 
0.981347 
0.999880 
0.010000 
0.010000 
0.010000 
0.010000 
0.010000 
0.105896 
1.000000 
1.000000 
0.956750 
0.010000 
0.010000 
0.010072 
0.793158 
0.763225 
0.711210 
0.869898 
0.798005 
0.563764 
0.390387 
0.275797 
0.234704 
0.332487 
0.441247 
0.299632 
0.304544 
0.374183 
0.237729 
0.376878 
0.962373 
0.999895 
0.010000 
0.010000 
0.010000 
0.010000 
0.010000 
0.010000 
0.999999 
1.000000 
0.994319 
0.010000 
0.010000 
0.010000 
0.135866 
0.908044 
0.942988 
0.835042 
0.362001 
0.308695 
0.443688 
0.017898 
0.010000 
0.010000 
0.010000 
0.010000 
0.010048 
0.061196 
0.066029 
0.069070 
0.927000 
0.999904 
0.010000 
0.010000 
0.010000 
0.010000 
0.010000 
0.010000 
0.999953 
1.000000 
0.988971 
0.010000 
0.010000 
0.010000 
0.280304 
0.898370 
0.904606 
0.551679 
0.125980 
0.350522 
0.321030 
0.010000 
0.010000 
0.010000 
0.010000 
0.010000 
0.010000 
0.010000 
0.010000 
0.010009 
0.927028 
0.999997 
0.010000 
0.010000 
0.010000 
0.010000 
0.010000 
0.010000 
0.999297 
0.999999 
0.990554 
0.010004 
0.010045 
0.437844 
0.856608 
0.775131 
0.645265 
0.221832 
0.148685 
0.572540 
0.202262 
0.010000 
0.010000 
0.010000 
0.010000 
0.010000 
0.010000 
0.010000 
0.010000 
0.010000 
0.996287 
1.000000 
0.010000 
0.010000 
0.010000 
0.010000 
0.010000 
0.010000 
0.998472 
1.000000 
0.999914 
0.956381 
0.924978 
0.903438 
0.228773 
0.016679 
0.021316 
0.101192 
0.360027 
0.690896 
0.030172 
0.010000 
0.010000 
0.010000 
0.010000 
0.010000 
0.010000 
0.010000 
0.010000 
0.010000 
0.998255 
1.000000 
0.010000 
0.010000 
0.010000 
0.010000 
0.010000 
0.010000 
0.994053 
1.000000 
1.000000 
0.999217 
0.594691 
0.010002 
0.010000 
0.010000 