# vtk DataFile Version 1.0 
Bar_TO_3D 
ASCII 
DATASET UNSTRUCTURED_GRID 
POINTS 1281 float 
0.000000 0.000000 
0.000000 0.000000 0.500000 
0.000000 0.000000 1.000000 
0.000000 0.000000 1.500000 
0.000000 0.000000 2.000000 
0.000000 0.000000 2.500000 
0.000000 0.000000 3.000000 
0.000000 0.000000 3.500000 
0.000000 0.000000 4.000000 
0.000000 0.000000 4.500000 
0.000000 0.000000 5.000000 
0.000000 0.000000 5.500000 
0.000000 0.000000 6.000000 
0.000000 0.000000 6.500000 
0.000000 0.000000 7.000000 
0.000000 0.000000 7.500000 
0.000000 0.000000 8.000000 
0.000000 0.000000 8.500000 
0.000000 0.000000 9.000000 
0.000000 0.000000 9.500000 
0.000000 0.000000 10.000000 
0.000000 0.500000 0.000000 
0.000000 0.500000 0.500000 
0.000000 0.500000 1.000000 
0.000000 0.500000 1.500000 
0.000000 0.500000 2.000000 
0.000000 0.500000 2.500000 
0.000000 0.500000 3.000000 
0.000000 0.500000 3.500000 
0.000000 0.500000 4.000000 
0.000000 0.500000 4.500000 
0.000000 0.500000 5.000000 
0.000000 0.500000 5.500000 
0.000000 0.500000 6.000000 
0.000000 0.500000 6.500000 
0.000000 0.500000 7.000000 
0.000000 0.500000 7.500000 
0.000000 0.500000 8.000000 
0.000000 0.500000 8.500000 
0.000000 0.500000 9.000000 
0.000000 0.500000 9.500000 
0.000000 0.500000 10.000000 
0.000000 1.000000 0.000000 
0.000000 1.000000 0.500000 
0.000000 1.000000 1.000000 
0.000000 1.000000 1.500000 
0.000000 1.000000 2.000000 
0.000000 1.000000 2.500000 
0.000000 1.000000 3.000000 
0.000000 1.000000 3.500000 
0.000000 1.000000 4.000000 
0.000000 1.000000 4.500000 
0.000000 1.000000 5.000000 
0.000000 1.000000 5.500000 
0.000000 1.000000 6.000000 
0.000000 1.000000 6.500000 
0.000000 1.000000 7.000000 
0.000000 1.000000 7.500000 
0.000000 1.000000 8.000000 
0.000000 1.000000 8.500000 
0.000000 1.000000 9.000000 
0.000000 1.000000 9.500000 
0.000000 1.000000 10.000000 
0.000000 1.500000 0.000000 
0.000000 1.500000 0.500000 
0.000000 1.500000 1.000000 
0.000000 1.500000 1.500000 
0.000000 1.500000 2.000000 
0.000000 1.500000 2.500000 
0.000000 1.500000 3.000000 
0.000000 1.500000 3.500000 
0.000000 1.500000 4.000000 
0.000000 1.500000 4.500000 
0.000000 1.500000 5.000000 
0.000000 1.500000 5.500000 
0.000000 1.500000 6.000000 
0.000000 1.500000 6.500000 
0.000000 1.500000 7.000000 
0.000000 1.500000 7.500000 
0.000000 1.500000 8.000000 
0.000000 1.500000 8.500000 
0.000000 1.500000 9.000000 
0.000000 1.500000 9.500000 
0.000000 1.500000 10.000000 
0.000000 2.000000 0.000000 
0.000000 2.000000 0.500000 
0.000000 2.000000 1.000000 
0.000000 2.000000 1.500000 
0.000000 2.000000 2.000000 
0.000000 2.000000 2.500000 
0.000000 2.000000 3.000000 
0.000000 2.000000 3.500000 
0.000000 2.000000 4.000000 
0.000000 2.000000 4.500000 
0.000000 2.000000 5.000000 
0.000000 2.000000 5.500000 
0.000000 2.000000 6.000000 
0.000000 2.000000 6.500000 
0.000000 2.000000 7.000000 
0.000000 2.000000 7.500000 
0.000000 2.000000 8.000000 
0.000000 2.000000 8.500000 
0.000000 2.000000 9.000000 
0.000000 2.000000 9.500000 
0.000000 2.000000 10.000000 
0.000000 2.500000 0.000000 
0.000000 2.500000 0.500000 
0.000000 2.500000 1.000000 
0.000000 2.500000 1.500000 
0.000000 2.500000 2.000000 
0.000000 2.500000 2.500000 
0.000000 2.500000 3.000000 
0.000000 2.500000 3.500000 
0.000000 2.500000 4.000000 
0.000000 2.500000 4.500000 
0.000000 2.500000 5.000000 
0.000000 2.500000 5.500000 
0.000000 2.500000 6.000000 
0.000000 2.500000 6.500000 
0.000000 2.500000 7.000000 
0.000000 2.500000 7.500000 
0.000000 2.500000 8.000000 
0.000000 2.500000 8.500000 
0.000000 2.500000 9.000000 
0.000000 2.500000 9.500000 
0.000000 2.500000 10.000000 
0.000000 3.000000 0.000000 
0.000000 3.000000 0.500000 
0.000000 3.000000 1.000000 
0.000000 3.000000 1.500000 
0.000000 3.000000 2.000000 
0.000000 3.000000 2.500000 
0.000000 3.000000 3.000000 
0.000000 3.000000 3.500000 
0.000000 3.000000 4.000000 
0.000000 3.000000 4.500000 
0.000000 3.000000 5.000000 
0.000000 3.000000 5.500000 
0.000000 3.000000 6.000000 
0.000000 3.000000 6.500000 
0.000000 3.000000 7.000000 
0.000000 3.000000 7.500000 
0.000000 3.000000 8.000000 
0.000000 3.000000 8.500000 
0.000000 3.000000 9.000000 
0.000000 3.000000 9.500000 
0.000000 3.000000 10.000000 
0.000000 3.500000 0.000000 
0.000000 3.500000 0.500000 
0.000000 3.500000 1.000000 
0.000000 3.500000 1.500000 
0.000000 3.500000 2.000000 
0.000000 3.500000 2.500000 
0.000000 3.500000 3.000000 
0.000000 3.500000 3.500000 
0.000000 3.500000 4.000000 
0.000000 3.500000 4.500000 
0.000000 3.500000 5.000000 
0.000000 3.500000 5.500000 
0.000000 3.500000 6.000000 
0.000000 3.500000 6.500000 
0.000000 3.500000 7.000000 
0.000000 3.500000 7.500000 
0.000000 3.500000 8.000000 
0.000000 3.500000 8.500000 
0.000000 3.500000 9.000000 
0.000000 3.500000 9.500000 
0.000000 3.500000 10.000000 
0.000000 4.000000 0.000000 
0.000000 4.000000 0.500000 
0.000000 4.000000 1.000000 
0.000000 4.000000 1.500000 
0.000000 4.000000 2.000000 
0.000000 4.000000 2.500000 
0.000000 4.000000 3.000000 
0.000000 4.000000 3.500000 
0.000000 4.000000 4.000000 
0.000000 4.000000 4.500000 
0.000000 4.000000 5.000000 
0.000000 4.000000 5.500000 
0.000000 4.000000 6.000000 
0.000000 4.000000 6.500000 
0.000000 4.000000 7.000000 
0.000000 4.000000 7.500000 
0.000000 4.000000 8.000000 
0.000000 4.000000 8.500000 
0.000000 4.000000 9.000000 
0.000000 4.000000 9.500000 
0.000000 4.000000 10.000000 
0.000000 4.500000 0.000000 
0.000000 4.500000 0.500000 
0.000000 4.500000 1.000000 
0.000000 4.500000 1.500000 
0.000000 4.500000 2.000000 
0.000000 4.500000 2.500000 
0.000000 4.500000 3.000000 
0.000000 4.500000 3.500000 
0.000000 4.500000 4.000000 
0.000000 4.500000 4.500000 
0.000000 4.500000 5.000000 
0.000000 4.500000 5.500000 
0.000000 4.500000 6.000000 
0.000000 4.500000 6.500000 
0.000000 4.500000 7.000000 
0.000000 4.500000 7.500000 
0.000000 4.500000 8.000000 
0.000000 4.500000 8.500000 
0.000000 4.500000 9.000000 
0.000000 4.500000 9.500000 
0.000000 4.500000 10.000000 
0.000000 5.000000 0.000000 
0.000000 5.000000 0.500000 
0.000000 5.000000 1.000000 
0.000000 5.000000 1.500000 
0.000000 5.000000 2.000000 
0.000000 5.000000 2.500000 
0.000000 5.000000 3.000000 
0.000000 5.000000 3.500000 
0.000000 5.000000 4.000000 
0.000000 5.000000 4.500000 
0.000000 5.000000 5.000000 
0.000000 5.000000 5.500000 
0.000000 5.000000 6.000000 
0.000000 5.000000 6.500000 
0.000000 5.000000 7.000000 
0.000000 5.000000 7.500000 
0.000000 5.000000 8.000000 
0.000000 5.000000 8.500000 
0.000000 5.000000 9.000000 
0.000000 5.000000 9.500000 
0.000000 5.000000 10.000000 
0.000000 5.500000 0.000000 
0.000000 5.500000 0.500000 
0.000000 5.500000 1.000000 
0.000000 5.500000 1.500000 
0.000000 5.500000 2.000000 
0.000000 5.500000 2.500000 
0.000000 5.500000 3.000000 
0.000000 5.500000 3.500000 
0.000000 5.500000 4.000000 
0.000000 5.500000 4.500000 
0.000000 5.500000 5.000000 
0.000000 5.500000 5.500000 
0.000000 5.500000 6.000000 
0.000000 5.500000 6.500000 
0.000000 5.500000 7.000000 
0.000000 5.500000 7.500000 
0.000000 5.500000 8.000000 
0.000000 5.500000 8.500000 
0.000000 5.500000 9.000000 
0.000000 5.500000 9.500000 
0.000000 5.500000 10.000000 
0.000000 6.000000 0.000000 
0.000000 6.000000 0.500000 
0.000000 6.000000 1.000000 
0.000000 6.000000 1.500000 
0.000000 6.000000 2.000000 
0.000000 6.000000 2.500000 
0.000000 6.000000 3.000000 
0.000000 6.000000 3.500000 
0.000000 6.000000 4.000000 
0.000000 6.000000 4.500000 
0.000000 6.000000 5.000000 
0.000000 6.000000 5.500000 
0.000000 6.000000 6.000000 
0.000000 6.000000 6.500000 
0.000000 6.000000 7.000000 
0.000000 6.000000 7.500000 
0.000000 6.000000 8.000000 
0.000000 6.000000 8.500000 
0.000000 6.000000 9.000000 
0.000000 6.000000 9.500000 
0.000000 6.000000 10.000000 
0.000000 6.500000 0.000000 
0.000000 6.500000 0.500000 
0.000000 6.500000 1.000000 
0.000000 6.500000 1.500000 
0.000000 6.500000 2.000000 
0.000000 6.500000 2.500000 
0.000000 6.500000 3.000000 
0.000000 6.500000 3.500000 
0.000000 6.500000 4.000000 
0.000000 6.500000 4.500000 
0.000000 6.500000 5.000000 
0.000000 6.500000 5.500000 
0.000000 6.500000 6.000000 
0.000000 6.500000 6.500000 
0.000000 6.500000 7.000000 
0.000000 6.500000 7.500000 
0.000000 6.500000 8.000000 
0.000000 6.500000 8.500000 
0.000000 6.500000 9.000000 
0.000000 6.500000 9.500000 
0.000000 6.500000 10.000000 
0.000000 7.000000 0.000000 
0.000000 7.000000 0.500000 
0.000000 7.000000 1.000000 
0.000000 7.000000 1.500000 
0.000000 7.000000 2.000000 
0.000000 7.000000 2.500000 
0.000000 7.000000 3.000000 
0.000000 7.000000 3.500000 
0.000000 7.000000 4.000000 
0.000000 7.000000 4.500000 
0.000000 7.000000 5.000000 
0.000000 7.000000 5.500000 
0.000000 7.000000 6.000000 
0.000000 7.000000 6.500000 
0.000000 7.000000 7.000000 
0.000000 7.000000 7.500000 
0.000000 7.000000 8.000000 
0.000000 7.000000 8.500000 
0.000000 7.000000 9.000000 
0.000000 7.000000 9.500000 
0.000000 7.000000 10.000000 
0.000000 7.500000 0.000000 
0.000000 7.500000 0.500000 
0.000000 7.500000 1.000000 
0.000000 7.500000 1.500000 
0.000000 7.500000 2.000000 
0.000000 7.500000 2.500000 
0.000000 7.500000 3.000000 
0.000000 7.500000 3.500000 
0.000000 7.500000 4.000000 
0.000000 7.500000 4.500000 
0.000000 7.500000 5.000000 
0.000000 7.500000 5.500000 
0.000000 7.500000 6.000000 
0.000000 7.500000 6.500000 
0.000000 7.500000 7.000000 
0.000000 7.500000 7.500000 
0.000000 7.500000 8.000000 
0.000000 7.500000 8.500000 
0.000000 7.500000 9.000000 
0.000000 7.500000 9.500000 
0.000000 7.500000 10.000000 
0.000000 8.000000 0.000000 
0.000000 8.000000 0.500000 
0.000000 8.000000 1.000000 
0.000000 8.000000 1.500000 
0.000000 8.000000 2.000000 
0.000000 8.000000 2.500000 
0.000000 8.000000 3.000000 
0.000000 8.000000 3.500000 
0.000000 8.000000 4.000000 
0.000000 8.000000 4.500000 
0.000000 8.000000 5.000000 
0.000000 8.000000 5.500000 
0.000000 8.000000 6.000000 
0.000000 8.000000 6.500000 
0.000000 8.000000 7.000000 
0.000000 8.000000 7.500000 
0.000000 8.000000 8.000000 
[...]
CELL_DATA 1200 
FIELD FieldData 2 
density 1 1200 float
0.133750 
0.133750 
0.133750 
0.133750 
0.133750 
0.133750 
0.133750 
0.133750 
0.133750 
0.133750 
0.133750 
0.133750 
0.133750 
0.133750 
0.133750 
0.133750 
0.133750 
0.133750 
0.133750 
0.133750 
0.133750 
0.133750 
0.133750 
0.133750 
0.133750 
0.133750 
0.133750 
0.133750 
0.133750 
0.133750 
0.133750 
0.133750 
0.133750 
0.133750 
0.133750 
0.133750 
0.133750 
0.133750 
0.133750 
0.133750 
0.133750 
0.133750 
0.133750 
0.133750 
0.133750 
0.133750 
0.133750 
0.133750 
0.133750 
0.133750 
0.133750 
0.133750 
0.133750 
0.133750 
0.133750 
0.133750 
0.133750 
0.133750 
0.133750 
0.133750 
0.133750 
0.133750 
0.133750 
0.133750 
0.133750 
0.133750 
0.133750 
0.133750 
0.133750 
0.133750 
0.133750 
0.133750 
0.133750 
0.133750 
0.133750 
0.133750 
0.133750 
0.133750 
0.133750 
0.133750 
0.133750 
0.133750 
0.133750 
0.133750 
0.133750 
0.133750 
0.133750 
0.133750 
0.133750 
0.133750 
0.133750 
0.133750 
0.133750 
0.133750 
0.133750 
0.133750 
0.133750 
0.133750 
0.133750 
0.133750 
0.133750 
0.133750 
0.133750 
0.133750 
0.133750 
0.133750 
0.133750 
0.133750 
0.133750 
0.133750 
0.133750 
0.133750 
0.133750 
0.133750 
0.133750 
0.133750 
0.133750 
0.133750 
0.133750 
0.133750 
0.133750 
0.133750 
0.133750 
0.133750 
0.133750 
0.133750 
0.133750 
0.133750 
0.133750 
0.133750 
0.133750 
0.133750 
0.133750 
0.133750 
0.133750 
0.133750 
0.133750 
0.133750 
0.133750 
0.133750 
0.133750 
0.133750 
0.133750 
0.133750 
0.133750 
0.133750 
0.133750 
0.133750 
0.133750 
0.133750 
0.133750 
0.133750 
0.133750 
0.133750 
0.133750 
0.133750 
0.133750 
0.133750 
0.133750 
0.133750 
0.133750 
0.133750 
0.133750 
0.133750 
0.133750 
0.133750 
0.133750 
0.133750 
0.133750 
0.133750 
0.133750 
0.133750 
0.133750 
0.133750 
0.133750 
0.133750 
0.133750 
0.133750 
0.133750 
0.133750 
0.133750 
0.133750 
0.133750 
0.133750 
0.133750 
0.133750 
0.133750 
0.133750 
0.133750 
0.133750 
0.133750 
0.133750 
0.133750 
0.133750 
0.133750 
0.133750 
0.133750 
0.133750 
0.133750 
0.133750 
0.133750 
0.133750 
0.133750 
0.133750 
0.133750 
0.133750 
0.133750 
0.133750 
0.133750 
0.133750 
0.133750 
0.133750 
0.133750 
0.133750 
0.133750 
0.133750 
0.133750 
0.133750 
0.133750 
0.133750 
0.133750 
0.133750 
0.133750 
0.133750 
0.133750 
0.133750 
0.133750 
0.133750 
0.133750 
0.133750 
0.133750 
0.133750 
0.133750 
0.133750 
0.133750 
0.133750 
0.133750 
0.133750 
0.133750 
0.133750 
0.133750 
0.133750 
0.133750 
0.133750 
0.133750 
0.133750 
0.133750 
0.133750 
0.133750 
0.133750 
0.133750 
0.133750 
0.133750 
0.133750 
0.133750 
0.133750 
0.133750 
0.133750 
0.133750 
0.133750 
0.133750 
0.133750 
0.133750 
0.133750 
0.133750 
0.133750 
0.133750 
0.133750 
0.133750 
0.133750 
0.133750 
0.133750 
0.133750 
0.133750 
0.133750 
0.133750 
0.133750 
0.133750 
0.133750 
0.133750 
0.133750 
0.133750 
0.133750 
0.133750 
0.133750 
0.133750 
0.133750 
0.133750 
0.133750 
0.133750 
0.133750 
0.133750 
0.133750 
0.133750 
0.133750 
0.133750 
0.133750 
0.133750 
0.133750 
0.133750 
0.133750 
0.133750 
0.133750 
0.133750 
0.133750 
0.133750 
0.133750 
0.133750 
0.133750 
0.133750 
0.133750 
0.133750 
0.133750 
0.133750 
0.133750 
0.133750 
0.133750 
0.133750 
0.133750 
0.133750 
0.133750 
0.133750 
0.133750 
0.133750 
0.133750 
0.133750 
0.133750 
0.133750 
0.133750 
0.133750 
0.133750 
0.133750 
0.133750 
0.133750 
0.133750 
0.133750 
0.133750 
0.133750 
0.133750 
0.133750 
0.133750 
0.133750 
0.133750 
0.133750 
0.133750 
0.133750 
0.133750 
0.133750 
0.133750 
0.133750 
0.133750 
0.133750 
0.133750 
0.133750 
0.133750 
0.133750 
0.133750 
0.133750 
0.133750 
0.133750 
0.133750 
0.133750 
0.133750 
0.133750 
0.133750 
0.133750 
0.133750 
0.133750 
0.133750 
0.133750 
0.133750 
0.133750 
0.133750 
0.133750 
0.133750 
0.133750 
0.133750 
0.133750 
0.133750 
0.133750 
0.133750 
0.133750 
0.133750 
0.133750 
0.133750 
0.133750 
0.133750 
0.133750 
0.133750 
0.133750 
0.133750 
0.133750 
0.133750 
0.133750 
0.133750 
0.133750 
0.133750 
0.133750 
0.133750 
0.133750 
0.133750 
0.133750 
0.133750 
0.133750 
0.133750 
0.133750 
0.133750 
0.133750 
0.133750 
0.133750 
0.133750 
0.133750 
0.133750 
0.133750 
0.133750 
0.133750 
0.133750 
0.133750 
0.133750 
0.133750 
0.133750 
0.133750 
0.133750 
0.133750 
0.133750 
0.133750 
0.133750 
0.133750 
0.133750 
0.133750 
0.133750 
0.133750 
0.133750 
0.133750 
0.133750 
0.133750 
0.133750 
0.133750 
0.133750 
0.133750 
0.133750 
0.133750 
0.133750 
0.133750 
0.133750 
0.133750 
0.133750 
0.133750 
0.133750 
0.133750 
0.133750 
0.133750 
0.133750 
0.133750 
0.133750 
0.133750 
0.133750 
0.133750 
0.133750 
0.133750 
0.133750 
0.133750 
0.133750 
0.133750 
0.133750 
0.133750 
0.133750 
0.133750 
0.133750 
0.133750 
0.133750 
0.133750 
0.133750 
0.133750 
0.133750 
0.133750 
0.133750 
0.133750 
0.133750 
0.133750 
0.133750 
0.133750 
0.133750 
0.133750 
0.133750 
0.133750 
0.133750 
0.133750 
0.133750 
0.133750 
0.133750 
0.133750 
0.133750 
0.133750 
0.133750 
0.133750 
0.133750 
0.133750 
0.133750 
0.133750 
0.133750 
0.133750 
0.133750 
0.133750 
0.133750 
0.133750 
0.133750 
0.133750 
0.133750 
0.133750 
0.133750 
0.133750 
0.133750 
0.133750 
0.133750 
0.133750 
0.133750 
0.133750 
0.133750 
0.133750 
0.133750 
0.133750 
0.133750 
0.133750 
0.133750 
0.133750 
0.133750 
0.133750 
0.133750 
0.133750 
0.133750 
0.133750 
0.133750 
0.133750 
0.133750 
0.133750 
0.133750 
0.133750 
0.133750 
0.133750 
0.133750 
0.133750 
0.133750 
0.133750 
0.133750 
0.133750 
0.133750 
0.133750 
0.133750 
0.133750 
0.133750 
0.133750 
0.133750 
0.133750 
0.133750 
0.133750 
0.133750 
0.133750 
0.133750 
0.133750 
0.133750 
0.133750 
0.133750 
0.133750 
0.133750 
0.133750 
0.133750 
0.133750 
0.133750 
0.133750 
0.133750 
0.133750 
0.133750 
0.133750 
0.133750 
0.133750 
0.133750 
0.133750 
0.133750 
0.133750 
0.133750 
0.133750 
0.133750 
0.133750 
0.133750 
0.133750 
0.133750 
0.133750 
0.133750 
0.133750 
0.133750 
0.133750 
0.133750 
0.133750 
0.133750 
0.133750 
0.133750 
0.133750 
0.133750 
0.133750 
0.133750 
0.133750 
0.133750 
0.133750 
0.133750 
0.133750 
0.133750 
0.133750 
0.133750 
0.133750 
0.133750 
0.133750 
0.133750 
0.133750 
0.133750 
0.133750 
0.133750 
0.133750 
0.133750 
0.133750 
0.133750 
0.133750 
0.133750 
0.133750 
0.133750 
0.133750 
0.133750 
0.133750 
0.133750 
0.133750 
0.133750 
0.133750 
0.133750 
0.133750 
0.133750 
0.133750 
0.133750 
0.133750 
0.133750 
0.133750 
0.133750 
0.133750 
0.133750 
0.133750 
0.133750 
0.133750 
0.133750 
0.133750 
0.133750 
0.133750 
0.133750 
0.133750 
0.133750 
0.133750 
0.133750 
0.133750 
0.133750 
0.133750 
0.133750 
0.133750 
0.133750 
0.133750 
0.133750 
0.133750 
0.133750 
0.133750 
0.133750 
0.133750 
0.133750 
0.133750 
0.133750 
0.133750 
0.133750 
0.133750 
0.133750 
0.133750 
0.133750 
0.133750 
0.133750 
0.133750 
0.133750 
0.133750 
0.133750 
0.133750 
0.133750 
0.133750 
0.133750 
0.133750 
0.133750 
0.133750 
0.133750 
0.133750 
0.133750 
0.133750 
0.133750 
0.133750 
0.133750 
0.133750 
0.133750 
0.133750 
0.133750 
0.133750 
0.133750 
0.133750 
0.133750 
0.133750 
0.133750 
0.133750 
0.133750 
0.133750 
0.133750 
0.133750 
0.133750 
0.133750 
0.133750 
0.133750 
0.133750 
0.133750 
0.133750 
0.133750 
0.133750 
0.133750 
0.133750 
0.133750 
0.133750 
0.133750 
0.133750 
0.133750 
0.133750 
0.133750 
0.133750 
0.133750 
0.133750 
0.133750 
0.133750 
0.133750 
0.133750 
0.133750 
0.133750 
0.133750 
0.133750 
0.133750 
0.133750 
0.133750 
0.133750 
0.133750 
0.133750 
0.133750 
0.133750 
0.133750 
0.133750 
0.133750 
0.133750 
0.133750 
0.133750 
0.133750 
0.133750 
0.133750 
0.133750 
0.133750 
0.133750 
0.133750 
0.133750 
0.133750 
0.133750 
0.133750 
0.133750 
0.133750 
0.133750 
0.133750 
0.133750 
0.133750 
0.133750 
0.133750 
0.133750 
0.133750 
0.133750 
0.133750 
0.133750 
0.133750 
0.133750 
0.133750 
0.133750 
0.133750 
0.133750 
0.133750 
0.133750 
0.133750 
0.133750 
0.133750 
0.133750 
0.133750 
0.133750 
0.133750 
0.133750 
0.133750 
0.133750 
0.133750 
0.133750 
0.133750 
0.133750 
0.133750 
0.133750 
0.133750 
0.133750 
0.133750 
0.133750 
0.133750 
0.133750 
0.133750 
0.133750 
0.133750 
0.133750 
0.133750 
0.133750 
0.133750 
0.133750 
0.133750 
0.133750 
0.133750 
0.133750 
0.133750 
0.133750 
0.133750 
0.133750 
0.133750 
0.133750 
0.133750 
0.133750 
0.133750 
0.133750 
0.133750 
0.133750 
0.133750 
0.133750 
0.133750 
0.133750 
0.133750 
0.133750 
0.133750 
0.133750 
0.133750 
0.133750 
0.133750 
0.133750 
0.133750 
0.133750 
0.133750 
0.133750 
0.133750 
0.133750 
0.133750 
0.133750 
0.133750 
0.133750 
0.133750 
0.133750 
0.133750 
0.133750 
0.133750 
0.133750 
0.133750 
0.133750 
0.133750 
0.133750 
0.133750 
0.133750 
0.133750 
0.133750 
0.133750 
0.133750 
0.133750 
0.133750 
0.133750 
0.133750 
0.133750 
0.133750 
0.133750 
0.133750 
0.133750 
0.133750 
0.133750 
0.133750 
0.133750 
0.133750 
0.133750 
0.133750 
0.133750 
0.133750 
0.133750 
0.133750 
0.133750 
0.133750 
0.133750 
0.133750 
0.133750 
0.133750 
0.133750 
0.133750 
0.133750 
0.133750 
0.133750 
0.133750 
0.133750 
0.133750 
0.133750 
0.133750 
0.133750 
0.133750 
0.133750 
0.133750 
0.133750 
0.133750 
0.133750 
0.133750 
0.133750 
0.133750 
0.133750 
0.133750 
0.133750 
0.133750 
0.133750 
0.133750 
0.133750 
0.133750 
0.133750 
0.133750 
0.133750 
0.133750 
0.133750 
0.133750 
0.133750 
0.133750 
0.133750 
0.133750 
0.133750 
0.133750 
0.133750 
0.133750 
0.133750 
0.133750 
0.133750 
0.133750 
0.133750 
0.133750 
0.133750 
0.133750 
0.133750 
0.133750 
0.133750 
0.133750 
0.133750 
0.133750 
0.133750 
0.133750 
0.133750 
0.133750 
0.133750 
0.133750 
0.133750 
0.133750 
0.133750 
0.133750 
0.133750 
0.133750 
0.133750 
0.133750 
0.133750 
0.133750 
0.133750 
0.133750 
0.133750 
0.133750 
0.133750 
0.133750 
0.133750 
0.133750 
0.133750 
0.133750 
0.133750 
0.133750 
0.133750 
0.133750 
0.133750 
0.133750 
0.133750 
0.133750 
0.133750 
0.133750 
0.133750 
0.133750 
0.133750 
0.133750 
0.133750 
0.133750 
0.133750 
0.133750 
0.133750 
0.133750 
0.133750 
0.133750 
0.133750 
0.133750 
0.133750 
0.133750 
0.133750 
0.133750 
0.133750 
0.133750 
0.133750 
0.133750 
0.133750 
0.133750 
0.133750 
0.133750 
0.133750 
0.133750 
0.133750 
0.133750 
0.133750 
0.133750 
0.133750 
0.133750 
0.133750 
0.133750 
0.133750 
0.133750 
0.133750 
0.133750 
0.133750 
0.133750 
0.133750 
0.133750 
0.133750 
0.133750 
0.133750 
0.133750 
0.133750 
0.133750 
0.133750 
0.133750 
0.133750 
0.133750 
0.133750 
0.133750 
0.133750 
0.133750 
0.133750 
0.133750 
0.133750 
0.133750 
0.133750 
0.133750 
0.133750 
0.133750 
0.133750 
0.133750 
0.133750 
0.133750 
0.133750 
0.133750 
0.133750 
0.133750 
0.133750 
0.133750 
0.133750 
0.133750 
0.133750 
0.133750 
0.133750 
0.133750 
0.133750 
0.133750 
0.133750 
0.133750 
0.133750 
0.133750 
0.133750 
0.133750 
0.133750 
0.133750 
0.133750 
0.133750 
0.133750 
0.133750 
0.133750 
0.133750 
0.133750 
0.133750 
0.133750 
0.133750 
0.133750 
0.133750 
0.133750 
0.133750 
0.133750 
0.133750 
0.133750 
0.133750 
0.133750 
0.133750 
0.133750 
0.133750 
0.133750 
0.133750 
0.133750 
0.133750 
0.133750 
0.133750 
0.133750 
0.133750 
0.133750 
0.133750 
0.133750 
0.133750 
0.133750 
0.133750 
0.133750 
0.133750 
0.133750 
0.133750 
0.133750 
0.133750 
0.133750 
0.133750 
0.133750 
0.133750 
0.133750 
0.133750 
0.133750 
0.133750 
0.133750 
0.133750 
0.133750 
0.133750 
0.133750 
0.133750 
0.133750 
0.133750 
0.133750 
0.133750 
0.133750 
0.133750 
0.133750 
0.133750 
0.133750 
0.133750 
0.133750 
0.133750 
0.133750 
0.133750 
0.133750 
0.133750 
0.133750 
0.133750 
0.133750 
0.133750 
0.133750 
0.133750 
0.133750 
0.133750 
0.133750 
0.133750 
0.133750 
0.133750 
0.133750 
0.133750 
0.133750 
0.133750 
0.133750 
0.133750 
0.133750 
0.133750 
0.133750 
0.133750 
0.133750 
0.133750 
0.133750 
0.133750 
0.133750 
0.133750 
0.133750 
0.133750 
0.133750 
0.133750 
0.133750 
0.133750 
0.133750 
0.133750 
0.133750 
0.133750 
0.133750 
0.133750 
0.133750 
0.133750 
0.133750 
0.133750 
0.133750 
0.133750 
0.133750 

stress 1 1200 float
0.995508 
0.749011 
0.619816 
0.516827 
0.426676 
0.343308 
0.264094 
0.187578 
0.113033 
0.041780 
0.041781 
0.113034 
0.187579 
0.264095 
0.343309 
0.426676 
0.516826 
0.619815 
0.749009 
0.995504 
0.915507 
0.801555 
0.660889 
0.550321 
0.453093 
0.364498 
0.281502 
0.202739 
0.128584 
0.066968 
0.066968 
0.128584 
0.202740 
0.281502 
0.364498 
0.453093 
0.550321 
0.660888 
0.801553 
0.915504 
0.865709 
0.788162 
0.680331 
0.572168 
0.473863 
0.383043 
0.298207 
0.218706 
0.146282 
0.091926 
0.091926 
0.146281 
0.218705 
0.298207 
0.383043 
0.473862 
0.572167 
0.680330 
0.788160 
0.865706 
0.841057 
0.767313 
0.676851 
0.580031 
0.485268 
0.395467 
0.310797 
0.231782 
0.161367 
0.111610 
0.111610 
0.161366 
0.231780 
0.310796 
0.395466 
0.485267 
0.580031 
0.676850 
0.767311 
0.841055 
0.823447 
0.749086 
0.665916 
0.577409 
0.488174 
0.401265 
0.318260 
0.240650 
0.172335 
0.125723 
0.125722 
0.172332 
0.240647 
0.318257 
0.401264 
0.488173 
0.577409 
0.665916 
0.749086 
0.823445 
0.809063 
0.733172 
0.653163 
0.569751 
0.485196 
0.401714 
0.321102 
0.245450 
0.179282 
0.135062 
0.135060 
0.179278 
0.245446 
0.321099 
0.401712 
0.485194 
0.569750 
0.653163 
0.733172 
0.809062 
0.795726 
0.718784 
0.640254 
0.559957 
0.478898 
0.398526 
0.320462 
0.246989 
0.182961 
0.140724 
0.140721 
0.182955 
0.246982 
0.320457 
0.398523 
0.478896 
0.559956 
0.640255 
0.718785 
0.795726 
0.782599 
0.705213 
0.627612 
0.549374 
0.470911 
0.393162 
0.317502 
0.246216 
0.184274 
0.143778 
0.143774 
0.184265 
0.246207 
0.317494 
0.393157 
0.470908 
0.549373 
0.627613 
0.705215 
0.782600 
0.769317 
0.692031 
0.615259 
0.538582 
0.462155 
0.386618 
0.313148 
0.243964 
0.184026 
0.145118 
0.145113 
0.184014 
0.243951 
0.313137 
0.386610 
0.462151 
0.538582 
0.615261 
0.692034 
0.769319 
0.755753 
0.678994 
0.603127 
0.527812 
0.453111 
0.379506 
0.308040 
0.240853 
0.182840 
0.145417 
0.145410 
0.182825 
0.240836 
0.308025 
0.379496 
0.453106 
0.527812 
0.603131 
0.678999 
0.755759 
0.741889 
0.665975 
0.591142 
0.517142 
0.444018 
0.372178 
0.302582 
0.237305 
0.181150 
0.145141 
0.145132 
0.181130 
0.237283 
0.302563 
0.372164 
0.444011 
0.517142 
0.591147 
0.665984 
0.741898 
0.727750 
0.652915 
0.579248 
0.506584 
0.434981 
0.364819 
0.297011 
0.233582 
0.179235 
0.144592 
0.144580 
0.179209 
0.233554 
0.296987 
0.364802 
0.434972 
0.506584 
0.579256 
0.652928 
0.727763 
0.713379 
0.639792 
0.567407 
0.496128 
0.426041 
0.357520 
0.291455 
0.229834 
0.177260 
0.143949 
0.143935 
0.177227 
0.229798 
0.291424 
0.357498 
0.426030 
0.496128 
0.567417 
0.639810 
0.713399 
0.698824 
0.626603 
0.555594 
0.485756 
0.417204 
0.350316 
0.285975 
0.226140 
0.175316 
0.143312 
0.143295 
0.175275 
0.226094 
0.285935 
0.350288 
0.417190 
0.485756 
0.555607 
0.626627 
0.698851 
0.684126 
0.613355 
0.543796 
0.475451 
0.408461 
0.343215 
0.280592 
0.222533 
0.173444 
0.142728 
0.142707 
0.173395 
0.222477 
0.280543 
0.343180 
0.408443 
0.475452 
0.543813 
0.613385 
0.684163 
0.669320 
0.600056 
0.532004 
0.465198 
0.399799 
0.336210 
0.275311 
0.219024 
0.171660 
0.142215 
0.142189 
0.171600 
0.218955 
0.275250 
0.336166 
0.399777 
0.465199 
0.532027 
0.600096 
0.669370 
0.654436 
0.586717 
0.520215 
0.454985 
0.391205 
0.329289 
0.270121 
0.215609 
0.169964 
0.141772 
0.141741 
0.169892 
0.215527 
0.270048 
0.329236 
0.391178 
0.454986 
0.520244 
0.586769 
0.654502 
0.639494 
0.573348 
0.508427 
0.444801 
0.382664 
0.322439 
0.265014 
0.212280 
0.168347 
0.141393 
0.141358 
0.168263 
0.212183 
0.264927 
0.322376 
0.382632 
0.444804 
0.508463 
0.573414 
0.639579 
0.624512 
0.559957 
0.496639 
0.434642 
0.374168 
0.315650 
0.259978 
0.209026 
0.166799 
0.141068 
0.141027 
0.166703 
0.208913 
0.259875 
0.315575 
0.374130 
0.434645 
0.496684 
0.560039 
0.624620 
0.609501 
0.546549 
0.484852 
0.424502 
0.365709 
0.308911 
0.255003 
0.205838 
0.165312 
0.140786 
0.140741 
0.165202 
0.205708 
0.254884 
0.308823 
0.365664 
0.424506 
0.484907 
0.546650 
0.609637 
0.594469 
0.533130 
0.473067 
0.414378 
0.357279 
0.302215 
0.250080 
0.202707 
0.163876 
0.140538 
0.140488 
0.163754 
0.202562 
0.249946 
0.302115 
0.357228 
0.414384 
0.473133 
0.533253 
0.594638 
0.579423 
0.519703 
0.461284 
0.404267 
0.348876 
0.295557 
0.245204 
0.199627 
0.162483 
0.140316 
0.140262 
0.162351 
0.199468 
0.245056 
0.295445 
0.348818 
0.404275 
0.461362 
0.519851 
0.579631 
0.564368 
0.506270 
0.449503 
0.394170 
0.340495 
0.288932 
0.240370 
0.196592 
0.161127 
0.140113 
0.140057 
0.160988 
0.196423 
0.240211 
0.288810 
0.340433 
0.394181 
0.449596 
0.506446 
0.564618 
0.549305 
0.492835 
0.437727 
0.384085 
0.332137 
0.282337 
0.235574 
0.193598 
0.159803 
0.139924 
0.139869 
0.159664 
0.193426 
0.235410 
0.282211 
0.332071 
0.384099 
0.437834 
0.493041 
0.549603 
0.534237 
0.479400 
0.425956 
0.374012 
0.323799 
0.275772 
0.230814 
0.190641 
0.158507 
0.139746 
0.139695 
0.158377 
0.190477 
0.230654 
0.275646 
0.323734 
0.374031 
0.426078 
0.479636 
0.534587 
0.519166 
0.465965 
0.414191 
0.363952 
0.315480 
0.269233 
0.226087 
0.187718 
0.157235 
0.139574 
0.139533 
0.157127 
0.187578 
0.225946 
0.269119 
0.315422 
0.363978 
0.414328 
0.466232 
0.519571 
0.504095 
0.452534 
0.402434 
0.353905 
0.307181 
0.262720 
0.221391 
0.184827 
0.155983 
0.139407 
0.139382 
0.155916 
0.184733 
0.221290 
0.262633 
0.307138 
0.353940 
0.402583 
0.452828 
0.504555 
0.489025 
0.439107 
0.390686 
0.343872 
0.298901 
0.256232 
0.216724 
0.181963 
0.154747 
0.139241 
0.139243 
0.154745 
0.181946 
0.216690 
0.256193 
0.298885 
0.343919 
0.390844 
0.439423 
0.489536 
0.473960 
0.425689 
0.378949 
0.333853 
0.290638 
0.249765 
0.212082 
0.179123 
0.153525 
0.139075 
0.139115 
0.153619 
0.179225 
0.212156 
0.249806 
0.290667 
0.333917 
0.379111 
0.426015 
0.474512 
0.458903 
0.412282 
0.367226 
0.323848 
0.282392 
0.243318 
0.207461 
0.176302 
0.152310 
0.138907 
0.139000 
0.152543 
0.176576 
0.207695 
0.243478 
0.282490 
0.323936 
0.367382 
0.412602 
0.459479 
0.443861 
0.398892 
0.355519 
0.313860 
0.274161 
0.236885 
0.202855 
0.173494 
0.151099 
0.138733 
0.138901 
0.151523 
0.174009 
0.203318 
0.237220 
0.274361 
0.313979 
0.355658 
0.399180 
0.444433 
0.428840 
0.385523 
0.343832 
0.303887 
0.265942 
0.230463 
0.198258 
0.170691 
0.149884 
0.138553 
0.138819 
0.150565 
0.171537 
0.199040 
0.231044 
0.266287 
0.304050 
0.343937 
0.385744 
0.429365 
0.413849 
0.372185 
0.332169 
0.293930 
0.257732 
0.224044 
0.193661 
0.167884 
0.148659 
0.138364 
0.138758 
0.149679 
0.169172 
0.194875 
0.224964 
0.258279 
0.294152 
0.332218 
0.372287 
0.414266 
0.398902 
0.358885 
0.320534 
0.283989 
0.249525 
0.217618 
0.189054 
0.165064 
0.147418 
0.138164 
0.138722 
0.148875 
0.166930 
0.190842 
0.218996 
0.250348 
0.284292 
0.320498 
0.358802 
0.399125 
0.384013 
0.345635 
0.308934 
0.274062 
0.241313 
0.211175 
0.184422 
0.162217 
0.146151 
0.137952 
0.138717 
0.148164 
0.164829 
0.186961 
0.213160 
0.242509 
0.274475 
0.308776 
0.345278 
0.383925 
0.369203 
0.332451 
0.297374 
0.264148 
0.233088 
0.204700 
0.179750 
0.159332 
0.144852 
0.137729 
0.138749 
0.147559 
0.162887 
0.183255 
0.207478 
0.234778 
0.264709 
0.297048 
0.331703 
0.368648 
0.354497 
0.319350 
0.285864 
0.254243 
0.224838 
0.198176 
0.175020 
0.156393 
0.143514 
0.137495 
0.138829 
0.147077 
0.161127 
0.179751 
0.201976 
0.227174 
0.255003 
0.285312 
0.318064 
0.353269 
0.339926 
0.306352 
0.274410 
0.244344 
0.216547 
0.191583 
0.170212 
0.153387 
0.142133 
0.137256 
0.138966 
0.146732 
0.159571 
0.176475 
0.196680 
0.219719 
0.245367 
0.273565 
0.304342 
0.337762 
0.325530 
0.293485 
0.263023 
0.234443 
0.208196 
0.184895 
0.165306 
0.150302 
0.140707 
0.137022 
0.139176 
0.146545 
0.158243 
0.173457 
0.191621 
0.212437 
0.235816 
0.261804 
0.290520 
0.322093 
0.311356 
0.280778 
0.251712 
0.224530 
0.199763 
0.178086 
0.160279 
0.147128 
0.139241 
0.136805 
0.139479 
0.146536 