# vtk DataFile Version 1.0 
Bar_TO_3D 
ASCII 
DATASET UNSTRUCTURED_GRID 
POINTS 2821 float 
0.000000 0.000000 
0.000000 0.000000 0.333333 
0.000000 0.000000 0.666667 
0.000000 0.000000 1.000000 
0.000000 0.000000 1.333333 
0.000000 0.000000 1.666667 
0.000000 0.000000 2.000000 
0.000000 0.000000 2.333333 
0.000000 0.000000 2.666667 
0.000000 0.000000 3.000000 
0.000000 0.000000 3.333333 
0.000000 0.000000 3.666667 
0.000000 0.000000 4.000000 
0.000000 0.000000 4.333333 
0.000000 0.000000 4.666667 
0.000000 0.000000 5.000000 
0.000000 0.000000 5.333333 
0.000000 0.000000 5.666667 
0.000000 0.000000 6.000000 
0.000000 0.000000 6.333333 
0.000000 0.000000 6.666667 
0.000000 0.000000 7.000000 
0.000000 0.000000 7.333333 
0.000000 0.000000 7.666667 
0.000000 0.000000 8.000000 
0.000000 0.000000 8.333333 
0.000000 0.000000 8.666667 
0.000000 0.000000 9.000000 
0.000000 0.000000 9.333333 
0.000000 0.000000 9.666667 
0.000000 0.000000 10.000000 
0.000000 0.333333 0.000000 
0.000000 0.333333 0.333333 
0.000000 0.333333 0.666667 
0.000000 0.333333 1.000000 
0.000000 0.333333 1.333333 
0.000000 0.333333 1.666667 
0.000000 0.333333 2.000000 
0.000000 0.333333 2.333333 
0.000000 0.333333 2.666667 
0.000000 0.333333 3.000000 
0.000000 0.333333 3.333333 
0.000000 0.333333 3.666667 
0.000000 0.333333 4.000000 
0.000000 0.333333 4.333333 
0.000000 0.333333 4.666667 
0.000000 0.333333 5.000000 
0.000000 0.333333 5.333333 
0.000000 0.333333 5.666667 
0.000000 0.333333 6.000000 
0.000000 0.333333 6.333333 
0.000000 0.333333 6.666667 
0.000000 0.333333 7.000000 
0.000000 0.333333 7.333333 
0.000000 0.333333 7.666667 
0.000000 0.333333 8.000000 
0.000000 0.333333 8.333333 
0.000000 0.333333 8.666667 
0.000000 0.333333 9.000000 
0.000000 0.333333 9.333333 
0.000000 0.333333 9.666667 
0.000000 0.333333 10.000000 
0.000000 0.666667 0.000000 
0.000000 0.666667 0.333333 
0.000000 0.666667 0.666667 
0.000000 0.666667 1.000000 
0.000000 0.666667 1.333333 
0.000000 0.666667 1.666667 
0.000000 0.666667 2.000000 
0.000000 0.666667 2.333333 
0.000000 0.666667 2.666667 
0.000000 0.666667 3.000000 
0.000000 0.666667 3.333333 
0.000000 0.666667 3.666667 
0.000000 0.666667 4.000000 
0.000000 0.666667 4.333333 
0.000000 0.666667 4.666667 
0.000000 0.666667 5.000000 
0.000000 0.666667 5.333333 
0.000000 0.666667 5.666667 
0.000000 0.666667 6.000000 
0.000000 0.666667 6.333333 
0.000000 0.666667 6.666667 
0.000000 0.666667 7.000000 
0.000000 0.666667 7.333333 
0.000000 0.666667 7.666667 
0.000000 0.666667 8.000000 
0.000000 0.666667 8.333333 
0.000000 0.666667 8.666667 
0.000000 0.666667 9.000000 
0.000000 0.666667 9.333333 
0.000000 0.666667 9.666667 
0.000000 0.666667 10.000000 
0.000000 1.000000 0.000000 
0.000000 1.000000 0.333333 
0.000000 1.000000 0.666667 
0.000000 1.000000 1.000000 
0.000000 1.000000 1.333333 
0.000000 1.000000 1.666667 
0.000000 1.000000 2.000000 
0.000000 1.000000 2.333333 
0.000000 1.000000 2.666667 
0.000000 1.000000 3.000000 
0.000000 1.000000 3.333333 
0.000000 1.000000 3.666667 
0.000000 1.000000 4.000000 
0.000000 1.000000 4.333333 
0.000000 1.000000 4.666667 
0.000000 1.000000 5.000000 
0.000000 1.000000 5.333333 
0.000000 1.000000 5.666667 
0.000000 1.000000 6.000000 
0.000000 1.000000 6.333333 
0.000000 1.000000 6.666667 
0.000000 1.000000 7.000000 
0.000000 1.000000 7.333333 
0.000000 1.000000 7.666667 
0.000000 1.000000 8.000000 
0.000000 1.000000 8.333333 
0.000000 1.000000 8.666667 
0.000000 1.000000 9.000000 
0.000000 1.000000 9.333333 
0.000000 1.000000 9.666667 
0.000000 1.000000 10.000000 
0.000000 1.333333 0.000000 
0.000000 1.333333 0.333333 
0.000000 1.333333 0.666667 
0.000000 1.333333 1.000000 
0.000000 1.333333 1.333333 
0.000000 1.333333 1.666667 
0.000000 1.333333 2.000000 
0.000000 1.333333 2.333333 
0.000000 1.333333 2.666667 
0.000000 1.333333 3.000000 
0.000000 1.333333 3.333333 
0.000000 1.333333 3.666667 
0.000000 1.333333 4.000000 
0.000000 1.333333 4.333333 
0.000000 1.333333 4.666667 
0.000000 1.333333 5.000000 
0.000000 1.333333 5.333333 
0.000000 1.333333 5.666667 
0.000000 1.333333 6.000000 
0.000000 1.333333 6.333333 
0.000000 1.333333 6.666667 
0.000000 1.333333 7.000000 
0.000000 1.333333 7.333333 
0.000000 1.333333 7.666667 
0.000000 1.333333 8.000000 
0.000000 1.333333 8.333333 
0.000000 1.333333 8.666667 
0.000000 1.333333 9.000000 
0.000000 1.333333 9.333333 
0.000000 1.333333 9.666667 
0.000000 1.333333 10.000000 
0.000000 1.666667 0.000000 
0.000000 1.666667 0.333333 
0.000000 1.666667 0.666667 
0.000000 1.666667 1.000000 
0.000000 1.666667 1.333333 
0.000000 1.666667 1.666667 
0.000000 1.666667 2.000000 
0.000000 1.666667 2.333333 
0.000000 1.666667 2.666667 
0.000000 1.666667 3.000000 
0.000000 1.666667 3.333333 
0.000000 1.666667 3.666667 
0.000000 1.666667 4.000000 
0.000000 1.666667 4.333333 
0.000000 1.666667 4.666667 
0.000000 1.666667 5.000000 
0.000000 1.666667 5.333333 
0.000000 1.666667 5.666667 
0.000000 1.666667 6.000000 
0.000000 1.666667 6.333333 
0.000000 1.666667 6.666667 
0.000000 1.666667 7.000000 
0.000000 1.666667 7.333333 
0.000000 1.666667 7.666667 
0.000000 1.666667 8.000000 
0.000000 1.666667 8.333333 
0.000000 1.666667 8.666667 
0.000000 1.666667 9.000000 
0.000000 1.666667 9.333333 
0.000000 1.666667 9.666667 
0.000000 1.666667 10.000000 
0.000000 2.000000 0.000000 
0.000000 2.000000 0.333333 
0.000000 2.000000 0.666667 
0.000000 2.000000 1.000000 
0.000000 2.000000 1.333333 
0.000000 2.000000 1.666667 
0.000000 2.000000 2.000000 
0.000000 2.000000 2.333333 
0.000000 2.000000 2.666667 
0.000000 2.000000 3.000000 
0.000000 2.000000 3.333333 
0.000000 2.000000 3.666667 
0.000000 2.000000 4.000000 
0.000000 2.000000 4.333333 
0.000000 2.000000 4.666667 
0.000000 2.000000 5.000000 
0.000000 2.000000 5.333333 
0.000000 2.000000 5.666667 
0.000000 2.000000 6.000000 
0.000000 2.000000 6.333333 
0.000000 2.000000 6.666667 
0.000000 2.000000 7.000000 
0.000000 2.000000 7.333333 
0.000000 2.000000 7.666667 
0.000000 2.000000 8.000000 
0.000000 2.000000 8.333333 
0.000000 2.000000 8.666667 
0.000000 2.000000 9.000000 
0.000000 2.000000 9.333333 
0.000000 2.000000 9.666667 
0.000000 2.000000 10.000000 
0.000000 2.333333 0.000000 
0.000000 2.333333 0.333333 
0.000000 2.333333 0.666667 
0.000000 2.333333 1.000000 
0.000000 2.333333 1.333333 
0.000000 2.333333 1.666667 
0.000000 2.333333 2.000000 
0.000000 2.333333 2.333333 
0.000000 2.333333 2.666667 
0.000000 2.333333 3.000000 
0.000000 2.333333 3.333333 
0.000000 2.333333 3.666667 
0.000000 2.333333 4.000000 
0.000000 2.333333 4.333333 
0.000000 2.333333 4.666667 
0.000000 2.333333 5.000000 
0.000000 2.333333 5.333333 
0.000000 2.333333 5.666667 
0.000000 2.333333 6.000000 
0.000000 2.333333 6.333333 
0.000000 2.333333 6.666667 
0.000000 2.333333 7.000000 
0.000000 2.333333 7.333333 
0.000000 2.333333 7.666667 
0.000000 2.333333 8.000000 
0.000000 2.333333 8.333333 
0.000000 2.333333 8.666667 
0.000000 2.333333 9.000000 
0.000000 2.333333 9.333333 
0.000000 2.333333 9.666667 
0.000000 2.333333 10.000000 
0.000000 2.666667 0.000000 
0.000000 2.666667 0.333333 
0.000000 2.666667 0.666667 
0.000000 2.666667 1.000000 
0.000000 2.666667 1.333333 
0.000000 2.666667 1.666667 
0.000000 2.666667 2.000000 
0.000000 2.666667 2.333333 
0.000000 2.666667 2.666667 
0.000000 2.666667 3.000000 
0.000000 2.666667 3.333333 
0.000000 2.666667 3.666667 
0.000000 2.666667 4.000000 
0.000000 2.666667 4.333333 
0.000000 2.666667 4.666667 
0.000000 2.666667 5.000000 
0.000000 2.666667 5.333333 
0.000000 2.666667 5.666667 
0.000000 2.666667 6.000000 
0.000000 2.666667 6.333333 
0.000000 2.666667 6.666667 
0.000000 2.666667 7.000000 
0.000000 2.666667 7.333333 
0.000000 2.666667 7.666667 
0.000000 2.666667 8.000000 
0.000000 2.666667 8.333333 
0.000000 2.666667 8.666667 
0.000000 2.666667 9.000000 
0.000000 2.666667 9.333333 
0.000000 2.666667 9.666667 
0.000000 2.666667 10.000000 
0.000000 3.000000 0.000000 
0.000000 3.000000 0.333333 
0.000000 3.000000 0.666667 
0.000000 3.000000 1.000000 
0.000000 3.000000 1.333333 
0.000000 3.000000 1.666667 
0.000000 3.000000 2.000000 
0.000000 3.000000 2.333333 
0.000000 3.000000 2.666667 
0.000000 3.000000 3.000000 
0.000000 3.000000 3.333333 
0.000000 3.000000 3.666667 
0.000000 3.000000 4.000000 
0.000000 3.000000 4.333333 
0.000000 3.000000 4.666667 
0.000000 3.000000 5.000000 
0.000000 3.000000 5.333333 
0.000000 3.000000 5.666667 
0.000000 3.000000 6.000000 
0.000000 3.000000 6.333333 
0.000000 3.000000 6.666667 
0.000000 3.000000 7.000000 
0.000000 3.000000 7.333333 
0.000000 3.000000 7.666667 
0.000000 3.000000 8.000000 
0.000000 3.000000 8.333333 
0.000000 3.000000 8.666667 
0.000000 3.000000 9.000000 
0.000000 3.000000 9.333333 
0.000000 3.000000 9.666667 
0.000000 3.000000 10.000000 
0.000000 3.333333 0.000000 
0.000000 3.333333 0.333333 
0.000000 3.333333 0.666667 
0.000000 3.333333 1.000000 
0.000000 3.333333 1.333333 
0.000000 3.333333 1.666667 
0.000000 3.333333 2.000000 
0.000000 3.333333 2.333333 
0.000000 3.333333 2.666667 
0.000000 3.333333 3.000000 
0.000000 3.333333 3.333333 
0.000000 3.333333 3.666667 
0.000000 3.333333 4.000000 
0.000000 3.333333 4.333333 
0.000000 3.333333 4.666667 
0.000000 3.333333 5.000000 
0.000000 3.333333 5.333333 
0.000000 3.333333 5.666667 
0.000000 3.333333 6.000000 
0.000000 3.333333 6.333333 
0.000000 3.333333 6.666667 
0.000000 3.333333 7.000000 
0.000000 3.333333 7.333333 
0.000000 3.333333 7.666667 
0.000000 3.333333 8.000000 
0.000000 3.333333 8.333333 
0.000000 3.333333 8.666667 
0.000000 3.333333 9.000000 
0.000000 3.333333 9.333333 
0.000000 3.333333 9.666667 
0.000000 3.333333 10.000000 
0.000000 3.666667 0.000000 
0.000000 3.666667 0.333333 
0.000000 3.666667 0.666667 
0.000000 3.666667 1.000000 
0.000000 3.666667 1.333333 
0.000000 3.666667 1.666667 
0.000000 3.666667 2.000000 
0.000000 3.666667 2.333333 
0.000000 3.666667 2.666667 
0.000000 3.666667 3.000000 
0.000000 3.666667 3.333333 
0.000000 3.666667 3.666667 
[...]
CELL_DATA 2700 
FIELD FieldData 2 
density 1 2700 float
1.000000 
1.000000 
1.000000 
1.000000 
1.000000 
1.000000 
1.000000 
1.000000 
1.000000 
1.000000 
1.000000 
1.000000 
1.000000 
1.000000 
1.000000 
1.000000 
1.000000 
1.000000 
1.000000 
1.000000 
1.000000 
1.000000 
1.000000 
1.000000 
1.000000 
1.000000 
1.000000 
1.000000 
1.000000 
1.000000 
1.000000 
1.000000 
1.000000 
1.000000 
1.000000 
1.000000 
1.000000 
1.000000 
1.000000 
1.000000 
1.000000 
1.000000 
1.000000 
1.000000 
1.000000 
1.000000 
1.000000 
1.000000 
1.000000 
1.000000 
1.000000 
1.000000 
1.000000 
1.000000 
1.000000 
1.000000 
1.000000 
1.000000 
1.000000 
1.000000 
1.000000 
1.000000 
1.000000 
1.000000 
1.000000 
1.000000 
1.000000 
1.000000 
1.000000 
1.000000 
1.000000 
1.000000 
1.000000 
1.000000 
1.000000 
1.000000 
1.000000 
1.000000 
1.000000 
1.000000 
1.000000 
1.000000 
1.000000 
1.000000 
1.000000 
1.000000 
1.000000 
1.000000 
1.000000 
1.000000 
1.000000 
1.000000 
1.000000 
1.000000 
1.000000 
1.000000 
1.000000 
1.000000 
1.000000 
1.000000 
1.000000 
1.000000 
1.000000 
1.000000 
1.000000 
1.000000 
1.000000 
1.000000 
1.000000 
1.000000 
1.000000 
1.000000 
1.000000 
1.000000 
1.000000 
1.000000 
1.000000 
1.000000 
1.000000 
1.000000 
1.000000 
1.000000 
1.000000 
1.000000 
1.000000 
1.000000 
1.000000 
1.000000 
1.000000 
1.000000 
1.000000 
1.000000 
1.000000 
1.000000 
1.000000 
1.000000 
1.000000 
1.000000 
1.000000 
1.000000 
1.000000 
1.000000 
1.000000 
1.000000 
1.000000 
1.000000 
1.000000 
1.000000 
1.000000 
1.000000 
1.000000 
1.000000 
1.000000 
1.000000 
1.000000 
1.000000 
1.000000 
1.000000 
1.000000 
1.000000 
1.000000 
1.000000 
1.000000 
1.000000 
1.000000 
1.000000 
1.000000 
1.000000 
1.000000 
1.000000 
1.000000 
1.000000 
1.000000 
1.000000 
1.000000 
1.000000 
1.000000 
1.000000 
1.000000 
1.000000 
1.000000 
1.000000 
1.000000 
1.000000 
1.000000 
1.000000 
1.000000 
1.000000 
1.000000 
1.000000 
1.000000 
1.000000 
1.000000 
1.000000 
1.000000 
1.000000 
1.000000 
1.000000 
1.000000 
1.000000 
1.000000 
1.000000 
1.000000 
1.000000 
1.000000 
1.000000 
1.000000 
1.000000 
1.000000 
1.000000 
1.000000 
1.000000 
1.000000 
1.000000 
1.000000 
1.000000 
1.000000 
1.000000 
1.000000 
1.000000 
1.000000 
1.000000 
1.000000 
1.000000 
1.000000 
1.000000 
1.000000 
1.000000 
1.000000 
1.000000 
1.000000 
1.000000 
1.000000 
1.000000 
1.000000 
1.000000 
1.000000 
1.000000 
1.000000 
1.000000 
1.000000 
1.000000 
1.000000 
1.000000 
1.000000 
1.000000 
1.000000 
1.000000 
1.000000 
1.000000 
1.000000 
1.000000 
1.000000 
1.000000 
1.000000 
1.000000 
1.000000 
1.000000 
1.000000 
1.000000 
1.000000 
1.000000 
1.000000 
1.000000 
1.000000 
1.000000 
1.000000 
1.000000 
1.000000 
1.000000 
1.000000 
1.000000 
1.000000 
1.000000 
1.000000 
1.000000 
1.000000 
1.000000 
1.000000 
1.000000 
1.000000 
1.000000 
1.000000 
1.000000 
1.000000 
1.000000 
1.000000 
1.000000 
1.000000 
1.000000 
1.000000 
1.000000 
1.000000 
1.000000 
1.000000 
1.000000 
1.000000 
1.000000 
1.000000 
1.000000 
1.000000 
1.000000 
1.000000 
1.000000 
1.000000 
1.000000 
1.000000 
1.000000 
1.000000 
1.000000 
1.000000 
1.000000 
1.000000 
1.000000 
1.000000 
1.000000 
1.000000 
1.000000 
1.000000 
1.000000 
1.000000 
1.000000 
1.000000 
1.000000 
1.000000 
1.000000 
1.000000 
1.000000 
1.000000 
1.000000 
1.000000 
1.000000 
1.000000 
1.000000 
1.000000 
1.000000 
1.000000 
1.000000 
1.000000 
1.000000 
1.000000 
1.000000 
1.000000 
1.000000 
1.000000 
1.000000 
1.000000 
1.000000 
1.000000 
1.000000 
1.000000 
1.000000 
1.000000 
1.000000 
1.000000 
1.000000 
1.000000 
1.000000 
1.000000 
1.000000 
1.000000 
1.000000 
1.000000 
1.000000 
1.000000 
1.000000 
1.000000 
1.000000 
1.000000 
1.000000 
1.000000 
1.000000 
1.000000 
1.000000 
1.000000 
1.000000 
1.000000 
1.000000 
1.000000 
1.000000 
1.000000 
1.000000 
1.000000 
1.000000 
1.000000 
1.000000 
1.000000 
1.000000 
1.000000 
1.000000 
1.000000 
1.000000 
1.000000 
1.000000 
1.000000 
1.000000 
1.000000 
1.000000 
1.000000 
1.000000 
1.000000 
1.000000 
1.000000 
1.000000 
1.000000 
1.000000 
1.000000 
1.000000 
1.000000 
1.000000 
1.000000 
1.000000 
1.000000 
1.000000 
1.000000 
1.000000 
1.000000 
1.000000 
1.000000 
1.000000 
1.000000 
1.000000 
1.000000 
1.000000 
1.000000 
1.000000 
1.000000 
1.000000 
1.000000 
1.000000 
1.000000 
1.000000 
1.000000 
1.000000 
1.000000 
1.000000 
1.000000 
1.000000 
1.000000 
1.000000 
1.000000 
1.000000 
1.000000 
1.000000 
1.000000 
1.000000 
1.000000 
1.000000 
1.000000 
1.000000 
1.000000 
1.000000 
1.000000 
1.000000 
1.000000 
1.000000 
1.000000 
1.000000 
1.000000 
1.000000 
1.000000 
1.000000 
1.000000 
1.000000 
1.000000 
1.000000 
1.000000 
1.000000 
1.000000 
1.000000 
1.000000 
1.000000 
1.000000 
1.000000 
1.000000 
1.000000 
1.000000 
1.000000 
1.000000 
1.000000 
1.000000 
1.000000 
1.000000 
1.000000 
1.000000 
1.000000 
1.000000 
1.000000 
1.000000 
1.000000 
1.000000 
1.000000 
1.000000 
1.000000 
1.000000 
1.000000 
1.000000 
1.000000 
1.000000 
1.000000 
1.000000 
1.000000 
1.000000 
1.000000 
1.000000 
1.000000 
1.000000 
1.000000 
1.000000 
1.000000 
1.000000 
1.000000 
1.000000 
1.000000 
1.000000 
1.000000 
1.000000 
1.000000 
1.000000 
1.000000 
1.000000 
1.000000 
1.000000 
1.000000 
1.000000 
1.000000 
1.000000 
1.000000 
1.000000 
1.000000 
1.000000 
1.000000 
1.000000 
1.000000 
1.000000 
1.000000 
1.000000 
1.000000 
1.000000 
1.000000 
1.000000 
1.000000 
1.000000 
1.000000 
1.000000 
1.000000 
1.000000 
1.000000 
1.000000 
1.000000 
1.000000 
1.000000 
1.000000 
1.000000 
1.000000 
1.000000 
1.000000 
1.000000 
1.000000 
1.000000 
1.000000 
1.000000 
1.000000 
1.000000 
1.000000 
1.000000 
1.000000 
1.000000 
1.000000 
1.000000 
1.000000 
1.000000 
1.000000 
1.000000 
1.000000 
1.000000 
1.000000 
1.000000 
1.000000 
1.000000 
1.000000 
1.000000 
1.000000 
1.000000 
1.000000 
1.000000 
1.000000 
1.000000 
1.000000 
1.000000 
1.000000 
1.000000 
1.000000 
1.000000 
1.000000 
1.000000 
1.000000 
1.000000 
1.000000 
1.000000 
1.000000 
1.000000 
1.000000 
1.000000 
1.000000 
1.000000 
1.000000 
1.000000 
1.000000 
1.000000 
1.000000 
1.000000 
1.000000 
1.000000 
1.000000 
1.000000 
1.000000 
1.000000 
1.000000 
1.000000 
1.000000 
1.000000 
1.000000 
1.000000 
1.000000 
1.000000 
1.000000 
1.000000 
1.000000 
1.000000 
1.000000 
1.000000 
1.000000 
1.000000 
1.000000 
1.000000 
1.000000 
1.000000 
1.000000 
1.000000 
1.000000 
1.000000 
1.000000 
1.000000 
1.000000 
1.000000 
1.000000 
1.000000 
1.000000 
1.000000 
1.000000 
1.000000 
1.000000 
1.000000 
1.000000 
1.000000 
1.000000 
1.000000 
1.000000 
1.000000 
1.000000 
1.000000 
1.000000 
1.000000 
1.000000 
1.000000 
1.000000 
1.000000 
1.000000 
1.000000 
1.000000 
1.000000 
1.000000 
1.000000 
1.000000 
1.000000 
1.000000 
1.000000 
1.000000 
1.000000 
1.000000 
1.000000 
1.000000 
1.000000 
1.000000 
1.000000 
1.000000 
1.000000 
1.000000 
1.000000 
1.000000 
1.000000 
1.000000 
1.000000 
1.000000 
1.000000 
1.000000 
1.000000 
1.000000 
1.000000 
1.000000 
1.000000 
1.000000 
1.000000 
1.000000 
1.000000 
1.000000 
1.000000 
1.000000 
1.000000 
1.000000 
1.000000 
1.000000 
1.000000 
1.000000 
1.000000 
1.000000 
1.000000 
1.000000 
1.000000 
1.000000 
1.000000 
1.000000 
1.000000 
1.000000 
1.000000 
1.000000 
1.000000 
1.000000 
1.000000 
1.000000 
1.000000 
1.000000 
1.000000 
1.000000 
1.000000 
1.000000 
1.000000 
1.000000 
1.000000 
1.000000 
1.000000 
1.000000 
1.000000 
1.000000 
1.000000 
1.000000 
1.000000 
1.000000 
1.000000 
1.000000 
1.000000 
1.000000 
1.000000 
1.000000 
1.000000 
1.000000 
1.000000 
1.000000 
1.000000 
1.000000 
1.000000 
1.000000 
1.000000 
1.000000 
1.000000 
1.000000 
1.000000 
1.000000 
1.000000 
1.000000 
1.000000 
1.000000 
1.000000 
1.000000 
1.000000 
1.000000 
1.000000 
1.000000 
1.000000 
1.000000 
1.000000 
1.000000 
1.000000 
1.000000 
1.000000 
1.000000 
1.000000 
1.000000 
1.000000 
1.000000 
1.000000 
1.000000 
1.000000 
1.000000 
1.000000 
1.000000 
1.000000 
1.000000 
1.000000 
1.000000 
1.000000 
1.000000 
1.000000 
1.000000 
1.000000 
1.000000 
1.000000 
1.000000 
1.000000 
1.000000 
1.000000 
1.000000 
1.000000 
1.000000 
1.000000 
1.000000 
1.000000 
1.000000 
1.000000 
1.000000 
1.000000 
1.000000 
1.000000 
1.000000 
1.000000 
1.000000 
1.000000 
1.000000 
1.000000 
1.000000 
1.000000 
1.000000 
1.000000 
1.000000 
1.000000 
1.000000 
1.000000 
1.000000 
1.000000 
1.000000 
1.000000 
1.000000 
1.000000 
1.000000 
1.000000 
1.000000 
1.000000 
1.000000 
1.000000 
1.000000 
1.000000 
1.000000 
1.000000 
1.000000 
1.000000 
1.000000 
1.000000 
1.000000 
1.000000 
1.000000 
1.000000 
1.000000 
1.000000 
1.000000 
1.000000 
1.000000 
1.000000 
1.000000 
1.000000 
1.000000 
1.000000 
1.000000 
1.000000 
1.000000 
1.000000 
1.000000 
1.000000 
1.000000 
1.000000 
1.000000 
1.000000 
1.000000 
1.000000 
1.000000 
1.000000 
1.000000 
1.000000 
1.000000 
1.000000 
1.000000 
1.000000 
1.000000 
1.000000 
1.000000 
1.000000 
1.000000 
1.000000 
1.000000 
1.000000 
1.000000 
1.000000 
1.000000 
1.000000 
1.000000 
1.000000 
1.000000 
1.000000 
1.000000 
1.000000 
1.000000 
1.000000 
1.000000 
1.000000 
1.000000 
1.000000 
1.000000 
1.000000 
1.000000 
1.000000 
1.000000 
1.000000 
1.000000 
1.000000 
1.000000 
1.000000 
1.000000 
1.000000 
1.000000 
1.000000 
1.000000 
1.000000 
1.000000 
1.000000 
1.000000 
1.000000 
1.000000 
1.000000 
1.000000 
1.000000 
1.000000 
1.000000 
1.000000 
1.000000 
1.000000 
1.000000 
1.000000 
1.000000 
1.000000 
1.000000 
1.000000 
1.000000 
1.000000 
1.000000 
1.000000 
1.000000 
1.000000 
1.000000 
1.000000 
1.000000 
1.000000 
1.000000 
1.000000 
1.000000 
1.000000 
1.000000 
1.000000 
1.000000 
1.000000 
1.000000 
1.000000 
1.000000 
1.000000 
1.000000 
1.000000 
1.000000 
1.000000 
1.000000 
1.000000 
1.000000 
1.000000 
1.000000 
1.000000 
1.000000 
1.000000 
1.000000 
1.000000 
1.000000 
1.000000 
1.000000 
1.000000 
1.000000 
1.000000 
1.000000 
1.000000 
1.000000 
1.000000 
1.000000 
1.000000 
1.000000 
1.000000 
1.000000 
1.000000 
1.000000 
1.000000 
1.000000 
1.000000 
1.000000 
1.000000 
1.000000 
1.000000 
1.000000 
1.000000 
1.000000 
1.000000 
1.000000 
1.000000 
1.000000 
1.000000 
1.000000 
1.000000 
1.000000 
1.000000 
1.000000 
1.000000 
1.000000 
1.000000 
1.000000 
1.000000 
1.000000 
1.000000 
1.000000 
1.000000 
1.000000 
1.000000 
1.000000 
1.000000 
1.000000 
1.000000 
1.000000 
1.000000 
1.000000 
1.000000 
1.000000 
1.000000 
1.000000 
1.000000 
1.000000 
1.000000 
1.000000 
1.000000 
1.000000 
1.000000 
1.000000 
1.000000 
1.000000 
1.000000 
1.000000 
1.000000 
1.000000 
1.000000 
1.000000 
1.000000 
1.000000 
1.000000 
1.000000 
1.000000 
1.000000 
1.000000 
1.000000 
1.000000 
1.000000 
1.000000 
1.000000 
1.000000 
1.000000 
1.000000 
1.000000 
1.000000 
1.000000 
1.000000 
1.000000 
1.000000 
1.000000 
1.000000 
1.000000 
1.000000 
1.000000 
1.000000 
1.000000 
1.000000 
1.000000 
1.000000 
1.000000 
1.000000 
1.000000 
1.000000 
1.000000 
1.000000 
1.000000 
1.000000 
1.000000 
1.000000 
1.000000 
1.000000 
1.000000 
1.000000 
1.000000 
1.000000 
1.000000 
1.000000 
1.000000 
1.000000 
1.000000 
1.000000 
1.000000 
1.000000 
1.000000 
1.000000 
1.000000 
1.000000 
1.000000 
1.000000 
1.000000 
1.000000 
1.000000 
1.000000 
1.000000 
1.000000 
1.000000 
1.000000 
1.000000 
1.000000 
1.000000 
1.000000 
1.000000 
1.000000 
1.000000 
1.000000 
1.000000 
1.000000 
1.000000 
1.000000 
1.000000 
1.000000 
1.000000 
1.000000 
1.000000 
1.000000 
1.000000 
1.000000 
1.000000 
1.000000 
1.000000 
1.000000 
1.000000 
1.000000 
1.000000 
1.000000 
1.000000 
1.000000 
1.000000 
1.000000 
1.000000 
1.000000 
1.000000 
1.000000 
1.000000 
1.000000 
1.000000 
1.000000 
1.000000 
1.000000 
1.000000 
1.000000 
1.000000 
1.000000 
1.000000 
1.000000 
1.000000 
1.000000 
1.000000 
1.000000 
1.000000 
1.000000 
1.000000 
1.000000 
1.000000 
1.000000 
1.000000 
1.000000 
1.000000 
1.000000 
1.000000 
1.000000 
1.000000 
1.000000 
1.000000 
1.000000 
1.000000 
1.000000 
1.000000 
1.000000 
1.000000 
1.000000 
1.000000 
1.000000 
1.000000 
1.000000 
1.000000 
1.000000 
1.000000 
1.000000 
1.000000 
1.000000 
1.000000 
1.000000 
1.000000 
1.000000 
1.000000 
1.000000 
1.000000 
1.000000 
1.000000 
1.000000 
1.000000 
1.000000 
1.000000 
1.000000 
1.000000 
0.999976 
1.000000 
1.000000 
1.000000 
1.000000 
1.000000 
1.000000 
1.000000 
1.000000 
1.000000 
1.000000 
1.000000 
1.000000 
1.000000 
1.000000 
1.000000 
1.000000 
1.000000 
1.000000 
1.000000 
1.000000 
1.000000 
1.000000 
1.000000 
1.000000 
1.000000 
1.000000 
1.000000 
1.000000 
0.999761 
0.998084 
0.999998 
1.000000 
1.000000 
1.000000 
1.000000 
1.000000 
1.000000 
1.000000 
1.000000 
1.000000 
1.000000 
1.000000 
1.000000 
1.000000 
1.000000 
1.000000 
1.000000 
1.000000 
1.000000 
1.000000 
1.000000 
1.000000 
1.000000 
1.000000 
1.000000 
1.000000 
1.000000 
0.999996 
0.988313 
0.986157 
0.999997 
1.000000 
1.000000 
1.000000 
1.000000 
1.000000 
1.000000 
1.000000 
1.000000 
1.000000 
1.000000 
1.000000 
1.000000 
1.000000 
1.000000 
1.000000 
1.000000 
1.000000 
1.000000 
1.000000 
1.000000 
1.000000 
1.000000 
1.000000 
1.000000 
1.000000 
1.000000 
0.999996 
0.978120 
0.971913 
0.999998 
1.000000 
1.000000 
1.000000 
1.000000 
1.000000 
1.000000 
1.000000 
1.000000 
1.000000 
1.000000 
1.000000 
1.000000 
1.000000 
1.000000 
1.000000 
1.000000 
1.000000 
1.000000 
1.000000 
1.000000 
1.000000 
1.000000 
1.000000 
1.000000 
1.000000 
1.000000 
0.999998 
0.953516 
0.966231 
0.999999 
1.000000 
1.000000 
1.000000 
1.000000 
1.000000 
1.000000 
1.000000 
1.000000 
1.000000 
1.000000 
1.000000 
1.000000 
1.000000 
1.000000 
1.000000 
1.000000 
1.000000 
1.000000 
1.000000 
1.000000 
1.000000 
1.000000 
1.000000 
1.000000 
1.000000 
1.000000 
0.999999 
0.944001 
0.934209 
0.999999 
1.000000 
1.000000 
1.000000 
1.000000 
1.000000 
1.000000 
1.000000 
1.000000 
1.000000 
1.000000 
1.000000 
1.000000 
1.000000 
1.000000 
1.000000 
1.000000 
1.000000 
1.000000 
1.000000 
1.000000 
1.000000 
1.000000 
1.000000 
1.000000 
1.000000 
1.000000 
0.999999 
0.909256 
0.929220 
0.999998 
1.000000 
1.000000 
1.000000 
1.000000 
1.000000 
1.000000 
1.000000 
1.000000 
1.000000 
1.000000 
1.000000 
1.000000 
1.000000 
1.000000 
1.000000 
1.000000 
1.000000 
1.000000 
1.000000 
1.000000 
1.000000 
1.000000 
1.000000 
1.000000 
1.000000 
1.000000 
0.999999 
0.878792 
0.890723 
0.999996 
1.000000 
1.000000 
1.000000 
1.000000 
1.000000 
1.000000 
1.000000 
1.000000 
1.000000 
1.000000 
1.000000 
1.000000 
1.000000 
1.000000 
1.000000 
1.000000 
1.000000 
1.000000 
1.000000 
1.000000 
1.000000 
1.000000 
1.000000 
1.000000 
1.000000 
1.000000 
0.999997 
0.845946 
0.888830 
0.999994 
1.000000 
1.000000 
1.000000 
1.000000 
1.000000 
1.000000 
1.000000 
1.000000 
1.000000 
1.000000 
1.000000 
1.000000 
1.000000 
1.000000 
1.000000 
1.000000 
1.000000 
1.000000 
1.000000 
1.000000 
1.000000 
1.000000 
1.000000 
1.000000 
1.000000 
1.000000 
0.999994 
0.814732 
0.845019 
0.999993 
1.000000 
1.000000 
1.000000 
1.000000 
1.000000 
1.000000 
1.000000 
1.000000 
1.000000 
1.000000 
1.000000 
1.000000 
1.000000 
1.000000 
1.000000 
1.000000 
1.000000 
1.000000 
1.000000 
1.000000 
1.000000 
1.000000 
1.000000 
1.000000 
1.000000 
1.000000 
0.999989 
0.754671 
0.839575 
0.999986 
1.000000 
1.000000 
1.000000 
1.000000 
1.000000 
1.000000 
1.000000 
1.000000 
1.000000 
1.000000 
1.000000 
1.000000 
1.000000 
1.000000 
1.000000 
1.000000 
1.000000 
1.000000 
1.000000 
1.000000 
1.000000 
1.000000 
1.000000 
1.000000 
1.000000 
1.000000 
0.999978 
0.714434 
0.819283 
0.999923 
1.000000 
1.000000 
1.000000 
1.000000 
1.000000 
1.000000 
1.000000 
1.000000 
1.000000 
1.000000 
1.000000 
1.000000 
1.000000 
1.000000 
1.000000 
1.000000 
1.000000 
1.000000 
1.000000 
1.000000 
1.000000 
1.000000 
1.000000 
1.000000 
1.000000 
1.000000 
0.999890 
0.675126 
0.831693 
0.999916 
1.000000 
1.000000 
1.000000 
1.000000 
1.000000 
1.000000 
1.000000 
1.000000 
1.000000 
1.000000 
1.000000 
1.000000 
1.000000 
1.000000 
1.000000 
1.000000 
1.000000 
1.000000 
1.000000 
1.000000 
1.000000 
1.000000 
1.000000 
1.000000 
1.000000 
1.000000 
0.998164 
0.591159 
0.857864 
0.999930 
1.000000 
1.000000 
1.000000 
1.000000 
1.000000 
1.000000 
1.000000 
1.000000 
1.000000 
1.000000 
1.000000 
1.000000 
1.000000 
1.000000 
1.000000 
1.000000 
1.000000 
1.000000 
1.000000 
1.000000 
1.000000 
1.000000 
1.000000 
1.000000 
1.000000 
0.999989 
0.981654 
0.565240 
0.875075 
0.999948 
1.000000 
1.000000 
0.999999 
1.000000 
1.000000 
1.000000 
1.000000 
1.000000 
1.000000 
1.000000 
1.000000 
1.000000 
1.000000 
1.000000 
1.000000 
1.000000 
1.000000 
1.000000 
1.000000 
1.000000 
1.000000 
1.000000 
1.000000 
1.000000 
1.000000 
0.999764 
0.921960 
0.523268 
0.914083 
0.999922 
0.999999 
0.999968 
0.979893 
0.999038 
1.000000 
1.000000 
1.000000 
1.000000 
1.000000 
1.000000 
1.000000 
1.000000 
1.000000 
1.000000 
1.000000 
1.000000 
1.000000 
1.000000 
1.000000 
1.000000 
1.000000 
1.000000 
1.000000 
1.000000 
1.000000 
0.999142 
0.877718 
0.469409 
0.947536 
0.999916 
0.999996 
0.994704 
0.017081 
0.886541 
1.000000 
1.000000 
1.000000 
1.000000 
1.000000 
1.000000 
1.000000 
1.000000 
1.000000 
1.000000 
1.000000 
1.000000 
1.000000 
1.000000 
1.000000 
1.000000 
1.000000 
1.000000 
1.000000 
1.000000 
1.000000 
0.998694 
0.820810 
0.433294 
0.970535 
0.999962 
0.999997 
0.994301 
0.010235 
0.863300 
1.000000 
1.000000 
1.000000 
1.000000 
1.000000 
1.000000 
1.000000 
1.000000 
1.000000 
1.000000 
1.000000 
1.000000 
1.000000 
1.000000 
1.000000 
1.000000 
1.000000 
1.000000 
1.000000 
1.000000 
1.000000 
0.999024 
0.797531 
0.400244 
0.991715 
0.999987 
0.999998 
0.991422 
0.010146 
0.865134 
1.000000 
1.000000 
1.000000 
1.000000 
1.000000 
1.000000 
1.000000 
1.000000 
1.000000 
1.000000 
1.000000 
1.000000 
1.000000 
1.000000 
1.000000 
1.000000 
1.000000 
1.000000 
1.000000 
1.000000 
1.000000 
0.999626 
0.800761 
0.261900 
0.999610 
0.999998 
0.999998 
0.951164 
0.010018 
0.892266 
1.000000 
1.000000 
1.000000 
0.999992 
0.999977 
1.000000 
1.000000 
1.000000 
1.000000 
1.000000 
1.000000 
1.000000 
1.000000 
1.000000 
1.000000 
1.000000 
1.000000 
1.000000 
1.000000 
1.000000 
1.000000 
0.999864 
0.775846 
0.191864 
0.999994 
1.000000 
1.000000 
0.971584 
0.010132 
0.909425 
1.000000 
1.000000 
1.000000 
0.997320 
0.803944 
0.999808 
1.000000 
1.000000 
1.000000 
1.000000 
1.000000 
1.000000 
1.000000 
1.000000 
1.000000 
1.000000 
1.000000 
1.000000 
1.000000 
1.000000 
1.000000 
0.999920 
0.757992 
0.034305 
1.000000 
1.000000 
1.000000 
0.991751 
0.010048 
0.443017 
0.999997 
1.000000 
1.000000 
0.998504 
0.393178 
0.884781 
0.999996 
1.000000 
1.000000 
1.000000 
1.000000 
1.000000 
0.999997 
1.000000 
1.000000 
1.000000 
1.000000 
1.000000 
1.000000 
1.000000 
1.000000 
0.999968 
0.669991 
0.010350 
1.000000 
1.000000 
1.000000 
0.995359 
0.010000 
0.010003 
0.999744 
1.000000 
1.000000 
0.999993 
0.684219 
0.010371 
0.874396 
0.999996 
1.000000 
1.000000 
0.999996 
0.992174 
0.709911 
0.996737 
1.000000 
1.000000 
1.000000 
1.000000 
1.000000 
1.000000 
1.000000 
0.999987 
0.590915 
0.010000 
1.000000 
1.000000 
1.000000 
0.997449 
0.010000 
0.010000 
0.988830 
1.000000 
1.000000 
1.000000 
0.909347 
0.010000 
0.010000 
0.932167 
0.999955 
0.999986 
0.999123 
0.613800 
0.010473 
0.854393 
0.999998 
1.000000 
1.000000 
1.000000 
1.000000 
1.000000 
1.000000 
0.999985 
0.250984 
0.010000 
1.000000 
1.000000 
1.000000 
0.999682 
0.010000 
0.010000 
0.631822 
1.000000 
1.000000 
1.000000 
0.996556 
0.010000 
0.010000 
0.097147 
0.991295 
0.996816 
0.984424 
0.682038 
0.573380 
0.996858 
1.000000 
1.000000 
1.000000 
1.000000 
1.000000 
1.000000 
1.000000 
0.999599 
0.010727 
0.010000 
1.000000 
1.000000 
1.000000 
0.999917 
0.010000 
0.010000 
0.010005 
0.999966 
1.000000 
1.000000 
0.999981 
0.469780 
0.012903 
0.380137 