# vtk DataFile Version 1.0 
Bar_TO_3D 
ASCII 
DATASET UNSTRUCTURED_GRID 
POINTS 20301 float 
0.000000 0.000000 
0.000000 0.000000 1.000000 
0.000000 0.000000 2.000000 
0.000000 0.000000 3.000000 
0.000000 0.000000 4.000000 
0.000000 0.000000 5.000000 
0.000000 0.000000 6.000000 
0.000000 0.000000 7.000000 
0.000000 0.000000 8.000000 
0.000000 0.000000 9.000000 
0.000000 0.000000 10.000000 
0.000000 0.000000 11.000000 
0.000000 0.000000 12.000000 
0.000000 0.000000 13.000000 
0.000000 0.000000 14.000000 
0.000000 0.000000 15.000000 
0.000000 0.000000 16.000000 
0.000000 0.000000 17.000000 
0.000000 0.000000 18.000000 
0.000000 0.000000 19.000000 
0.000000 0.000000 20.000000 
0.000000 0.000000 21.000000 
0.000000 0.000000 22.000000 
0.000000 0.000000 23.000000 
0.000000 0.000000 24.000000 
0.000000 0.000000 25.000000 
0.000000 0.000000 26.000000 
0.000000 0.000000 27.000000 
0.000000 0.000000 28.000000 
0.000000 0.000000 29.000000 
0.000000 0.000000 30.000000 
0.000000 0.000000 31.000000 
0.000000 0.000000 32.000000 
0.000000 0.000000 33.000000 
0.000000 0.000000 34.000000 
0.000000 0.000000 35.000000 
0.000000 0.000000 36.000000 
0.000000 0.000000 37.000000 
0.000000 0.000000 38.000000 
0.000000 0.000000 39.000000 
0.000000 0.000000 40.000000 
0.000000 0.000000 41.000000 
0.000000 0.000000 42.000000 
0.000000 0.000000 43.000000 
0.000000 0.000000 44.000000 
0.000000 0.000000 45.000000 
0.000000 0.000000 46.000000 
0.000000 0.000000 47.000000 
0.000000 0.000000 48.000000 
0.000000 0.000000 49.000000 
0.000000 0.000000 50.000000 
0.000000 0.000000 51.000000 
0.000000 0.000000 52.000000 
0.000000 0.000000 53.000000 
0.000000 0.000000 54.000000 
0.000000 0.000000 55.000000 
0.000000 0.000000 56.000000 
0.000000 0.000000 57.000000 
0.000000 0.000000 58.000000 
0.000000 0.000000 59.000000 
0.000000 0.000000 60.000000 
0.000000 0.000000 61.000000 
0.000000 0.000000 62.000000 
0.000000 0.000000 63.000000 
0.000000 0.000000 64.000000 
0.000000 0.000000 65.000000 
0.000000 0.000000 66.000000 
0.000000 0.000000 67.000000 
0.000000 0.000000 68.000000 
0.000000 0.000000 69.000000 
0.000000 0.000000 70.000000 
0.000000 0.000000 71.000000 
0.000000 0.000000 72.000000 
0.000000 0.000000 73.000000 
0.000000 0.000000 74.000000 
0.000000 0.000000 75.000000 
0.000000 0.000000 76.000000 
0.000000 0.000000 77.000000 
0.000000 0.000000 78.000000 
0.000000 0.000000 79.000000 
0.000000 0.000000 80.000000 
0.000000 0.000000 81.000000 
0.000000 0.000000 82.000000 
0.000000 0.000000 83.000000 
0.000000 0.000000 84.000000 
0.000000 0.000000 85.000000 
0.000000 0.000000 86.000000 
0.000000 0.000000 87.000000 
0.000000 0.000000 88.000000 
0.000000 0.000000 89.000000 
0.000000 0.000000 90.000000 
0.000000 0.000000 91.000000 
0.000000 0.000000 92.000000 
0.000000 0.000000 93.000000 
0.000000 0.000000 94.000000 
0.000000 0.000000 95.000000 
0.000000 0.000000 96.000000 
0.000000 0.000000 97.000000 
0.000000 0.000000 98.000000 
0.000000 0.000000 99.000000 
0.000000 0.000000 100.000000 
0.000000 0.000000 101.000000 
0.000000 0.000000 102.000000 
0.000000 0.000000 103.000000 
0.000000 0.000000 104.000000 
0.000000 0.000000 105.000000 
0.000000 0.000000 106.000000 
0.000000 0.000000 107.000000 
0.000000 0.000000 108.000000 
0.000000 0.000000 109.000000 
0.000000 0.000000 110.000000 
0.000000 0.000000 111.000000 
0.000000 0.000000 112.000000 
0.000000 0.000000 113.000000 
0.000000 0.000000 114.000000 
0.000000 0.000000 115.000000 
0.000000 0.000000 116.000000 
0.000000 0.000000 117.000000 
0.000000 0.000000 118.000000 
0.000000 0.000000 119.000000 
0.000000 0.000000 120.000000 
0.000000 0.000000 121.000000 
0.000000 0.000000 122.000000 
0.000000 0.000000 123.000000 
0.000000 0.000000 124.000000 
0.000000 0.000000 125.000000 
0.000000 0.000000 126.000000 
0.000000 0.000000 127.000000 
0.000000 0.000000 128.000000 
0.000000 0.000000 129.000000 
0.000000 0.000000 130.000000 
0.000000 0.000000 131.000000 
0.000000 0.000000 132.000000 
0.000000 0.000000 133.000000 
0.000000 0.000000 134.000000 
0.000000 0.000000 135.000000 
0.000000 0.000000 136.000000 
0.000000 0.000000 137.000000 
0.000000 0.000000 138.000000 
0.000000 0.000000 139.000000 
0.000000 0.000000 140.000000 
0.000000 0.000000 141.000000 
0.000000 0.000000 142.000000 
0.000000 0.000000 143.000000 
0.000000 0.000000 144.000000 
0.000000 0.000000 145.000000 
0.000000 0.000000 146.000000 
0.000000 0.000000 147.000000 
0.000000 0.000000 148.000000 
0.000000 0.000000 149.000000 
0.000000 0.000000 150.000000 
0.000000 0.000000 151.000000 
0.000000 0.000000 152.000000 
0.000000 0.000000 153.000000 
0.000000 0.000000 154.000000 
0.000000 0.000000 155.000000 
0.000000 0.000000 156.000000 
0.000000 0.000000 157.000000 
0.000000 0.000000 158.000000 
0.000000 0.000000 159.000000 
0.000000 0.000000 160.000000 
0.000000 0.000000 161.000000 
0.000000 0.000000 162.000000 
0.000000 0.000000 163.000000 
0.000000 0.000000 164.000000 
0.000000 0.000000 165.000000 
0.000000 0.000000 166.000000 
0.000000 0.000000 167.000000 
0.000000 0.000000 168.000000 
0.000000 0.000000 169.000000 
0.000000 0.000000 170.000000 
0.000000 0.000000 171.000000 
0.000000 0.000000 172.000000 
0.000000 0.000000 173.000000 
0.000000 0.000000 174.000000 
0.000000 0.000000 175.000000 
0.000000 0.000000 176.000000 
0.000000 0.000000 177.000000 
0.000000 0.000000 178.000000 
0.000000 0.000000 179.000000 
0.000000 0.000000 180.000000 
0.000000 0.000000 181.000000 
0.000000 0.000000 182.000000 
0.000000 0.000000 183.000000 
0.000000 0.000000 184.000000 
0.000000 0.000000 185.000000 
0.000000 0.000000 186.000000 
0.000000 0.000000 187.000000 
0.000000 0.000000 188.000000 
0.000000 0.000000 189.000000 
0.000000 0.000000 190.000000 
0.000000 0.000000 191.000000 
0.000000 0.000000 192.000000 
0.000000 0.000000 193.000000 
0.000000 0.000000 194.000000 
0.000000 0.000000 195.000000 
0.000000 0.000000 196.000000 
0.000000 0.000000 197.000000 
0.000000 0.000000 198.000000 
0.000000 0.000000 199.000000 
0.000000 0.000000 200.000000 
0.000000 1.000000 0.000000 
0.000000 1.000000 1.000000 
0.000000 1.000000 2.000000 
0.000000 1.000000 3.000000 
0.000000 1.000000 4.000000 
0.000000 1.000000 5.000000 
0.000000 1.000000 6.000000 
0.000000 1.000000 7.000000 
0.000000 1.000000 8.000000 
0.000000 1.000000 9.000000 
0.000000 1.000000 10.000000 
0.000000 1.000000 11.000000 
0.000000 1.000000 12.000000 
0.000000 1.000000 13.000000 
0.000000 1.000000 14.000000 
0.000000 1.000000 15.000000 
0.000000 1.000000 16.000000 
0.000000 1.000000 17.000000 
0.000000 1.000000 18.000000 
0.000000 1.000000 19.000000 
0.000000 1.000000 20.000000 
0.000000 1.000000 21.000000 
0.000000 1.000000 22.000000 
0.000000 1.000000 23.000000 
0.000000 1.000000 24.000000 
0.000000 1.000000 25.000000 
0.000000 1.000000 26.000000 
0.000000 1.000000 27.000000 
0.000000 1.000000 28.000000 
0.000000 1.000000 29.000000 
0.000000 1.000000 30.000000 
0.000000 1.000000 31.000000 
0.000000 1.000000 32.000000 
0.000000 1.000000 33.000000 
0.000000 1.000000 34.000000 
0.000000 1.000000 35.000000 
0.000000 1.000000 36.000000 
0.000000 1.000000 37.000000 
0.000000 1.000000 38.000000 
0.000000 1.000000 39.000000 
0.000000 1.000000 40.000000 
0.000000 1.000000 41.000000 
0.000000 1.000000 42.000000 
0.000000 1.000000 43.000000 
0.000000 1.000000 44.000000 
0.000000 1.000000 45.000000 
0.000000 1.000000 46.000000 
0.000000 1.000000 47.000000 
0.000000 1.000000 48.000000 
0.000000 1.000000 49.000000 
0.000000 1.000000 50.000000 
0.000000 1.000000 51.000000 
0.000000 1.000000 52.000000 
0.000000 1.000000 53.000000 
0.000000 1.000000 54.000000 
0.000000 1.000000 55.000000 
0.000000 1.000000 56.000000 
0.000000 1.000000 57.000000 
0.000000 1.000000 58.000000 
0.000000 1.000000 59.000000 
0.000000 1.000000 60.000000 
0.000000 1.000000 61.000000 
0.000000 1.000000 62.000000 
0.000000 1.000000 63.000000 
0.000000 1.000000 64.000000 
0.000000 1.000000 65.000000 
0.000000 1.000000 66.000000 
0.000000 1.000000 67.000000 
0.000000 1.000000 68.000000 
0.000000 1.000000 69.000000 
0.000000 1.000000 70.000000 
0.000000 1.000000 71.000000 
0.000000 1.000000 72.000000 
0.000000 1.000000 73.000000 
0.000000 1.000000 74.000000 
0.000000 1.000000 75.000000 
0.000000 1.000000 76.000000 
0.000000 1.000000 77.000000 
0.000000 1.000000 78.000000 
0.000000 1.000000 79.000000 
0.000000 1.000000 80.000000 
0.000000 1.000000 81.000000 
0.000000 1.000000 82.000000 
0.000000 1.000000 83.000000 
0.000000 1.000000 84.000000 
0.000000 1.000000 85.000000 
0.000000 1.000000 86.000000 
0.000000 1.000000 87.000000 
0.000000 1.000000 88.000000 
0.000000 1.000000 89.000000 
0.000000 1.000000 90.000000 
0.000000 1.000000 91.000000 
0.000000 1.000000 92.000000 
0.000000 1.000000 93.000000 
0.000000 1.000000 94.000000 
0.000000 1.000000 95.000000 
0.000000 1.000000 96.000000 
0.000000 1.000000 97.000000 
0.000000 1.000000 98.000000 
0.000000 1.000000 99.000000 
0.000000 1.000000 100.000000 
0.000000 1.000000 101.000000 
0.000000 1.000000 102.000000 
0.000000 1.000000 103.000000 
0.000000 1.000000 104.000000 
0.000000 1.000000 105.000000 
0.000000 1.000000 106.000000 
0.000000 1.000000 107.000000 
0.000000 1.000000 108.000000 
0.000000 1.000000 109.000000 
0.000000 1.000000 110.000000 
0.000000 1.000000 111.000000 
0.000000 1.000000 112.000000 
0.000000 1.000000 113.000000 
0.000000 1.000000 114.000000 
0.000000 1.000000 115.000000 
0.000000 1.000000 116.000000 
0.000000 1.000000 117.000000 
0.000000 1.000000 118.000000 
0.000000 1.000000 119.000000 
0.000000 1.000000 120.000000 
0.000000 1.000000 121.000000 
0.000000 1.000000 122.000000 
0.000000 1.000000 123.000000 
0.000000 1.000000 124.000000 
0.000000 1.000000 125.000000 
0.000000 1.000000 126.000000 
0.000000 1.000000 127.000000 
0.000000 1.000000 128.000000 
0.000000 1.000000 129.000000 
0.000000 1.000000 130.000000 
0.000000 1.000000 131.000000 
0.000000 1.000000 132.000000 
0.000000 1.000000 133.000000 
0.000000 1.000000 134.000000 
0.000000 1.000000 135.000000 
[...]
CELL_DATA 20000 
FIELD FieldData 2 
density 1 20000 float
0.999904 
0.999906 
0.999903 
0.999896 
0.999888 
0.999881 
0.999873 
0.999866 
0.999857 
0.999849 
0.999839 
0.999830 
0.999819 
0.999809 
0.999797 
0.999785 
0.999773 
0.999759 
0.999746 
0.999731 
0.999716 
0.999700 
0.999688 
0.999671 
0.999629 
0.999545 
0.999473 
0.999425 
0.999389 
0.999364 
0.999375 
0.999397 
0.999331 
0.999166 
0.999001 
0.998908 
0.998857 
0.998824 
0.998820 
0.998871 
0.998974 
0.999055 
0.999077 
0.999039 
0.998975 
0.998971 
0.999051 
0.999174 
0.999264 
0.999318 
0.999357 
0.999396 
0.999435 
0.999472 
0.999507 
0.999541 
0.999573 
0.999604 
0.999632 
0.999662 
0.999700 
0.999746 
0.999792 
0.999832 
0.999857 
0.999868 
0.999875 
0.999882 
0.999888 
0.999890 
0.999886 
0.999880 
0.999881 
0.999891 
0.999906 
0.999926 
0.999940 
0.999950 
0.999956 
0.999960 
0.999962 
0.999965 
0.999967 
0.999971 
0.999976 
0.999980 
0.999982 
0.999983 
0.999982 
0.999982 
0.999985 
0.999988 
0.999990 
0.999991 
0.999990 
0.999991 
0.999992 
0.999994 
0.999995 
0.999996 
0.895679 
0.545198 
0.222325 
0.078592 
0.056259 
0.049486 
0.048075 
0.044499 
0.042503 
0.042145 
0.041127 
0.039497 
0.039293 
0.038667 
0.036850 
0.034355 
0.033361 
0.030372 
0.028308 
0.026118 
0.024753 
0.023101 
0.022061 
0.020061 
0.019515 
0.017806 
0.016842 
0.015769 
0.014751 
0.014542 
0.013704 
0.012000 
0.011560 
0.010921 
0.009367 
0.009214 
0.009886 
0.008306 
0.007284 
0.006348 
0.005300 
0.004867 
0.004390 
0.003753 
0.002544 
0.002153 
0.002145 
0.002182 
0.002140 
0.002055 
0.002470 
0.002751 
0.002446 
0.001659 
0.001222 
0.001102 
0.001077 
0.001050 
0.001024 
0.001004 
0.001000 
0.001000 
0.001000 
0.001000 
0.001000 
0.001000 
0.001000 
0.001013 
0.002134 
0.019576 
0.093396 
0.201255 
0.270958 
0.339146 
0.428789 
0.519242 
0.577349 
0.552373 
0.475031 
0.398210 
0.321250 
0.248012 
0.169171 
0.085570 
0.032052 
0.013792 
0.012724 
0.024612 
0.052409 
0.087390 
0.114387 
0.127399 
0.120408 
0.100294 
0.073524 
0.046366 
0.025529 
0.013657 
0.009123 
0.008332 
0.999908 
0.999909 
0.999907 
0.999900 
0.999893 
0.999886 
0.999878 
0.999871 
0.999863 
0.999855 
0.999846 
0.999836 
0.999826 
0.999816 
0.999805 
0.999793 
0.999781 
0.999768 
0.999754 
0.999740 
0.999725 
0.999710 
0.999695 
0.999676 
0.999629 
0.999556 
0.999490 
0.999448 
0.999413 
0.999390 
0.999404 
0.999426 
0.999355 
0.999182 
0.999029 
0.998948 
0.998907 
0.998875 
0.998866 
0.998903 
0.998991 
0.999073 
0.999106 
0.999078 
0.999025 
0.999018 
0.999092 
0.999206 
0.999292 
0.999343 
0.999381 
0.999419 
0.999457 
0.999492 
0.999527 
0.999560 
0.999591 
0.999620 
0.999647 
0.999676 
0.999712 
0.999756 
0.999799 
0.999837 
0.999861 
0.999872 
0.999879 
0.999885 
0.999891 
0.999893 
0.999889 
0.999885 
0.999886 
0.999895 
0.999907 
0.999922 
0.999935 
0.999946 
0.999954 
0.999960 
0.999963 
0.999966 
0.999968 
0.999971 
0.999976 
0.999980 
0.999983 
0.999983 
0.999983 
0.999983 
0.999985 
0.999988 
0.999990 
0.999991 
0.999991 
0.999992 
0.999993 
0.999984 
0.951132 
0.868744 
0.732013 
0.480682 
0.215586 
0.113501 
0.084673 
0.069099 
0.061466 
0.054401 
0.048144 
0.043515 
0.041796 
0.039389 
0.037198 
0.035619 
0.033689 
0.032487 
0.030902 
0.030397 
0.029410 
0.028038 
0.025772 
0.023967 
0.022729 
0.021042 
0.019713 
0.018311 
0.017457 
0.016694 
0.015043 
0.013942 
0.012699 
0.011247 
0.010764 
0.009980 
0.008446 
0.008115 
0.007826 
0.006959 
0.005877 
0.005078 
0.004447 
0.003948 
0.004087 
0.003602 
0.002888 
0.002467 
0.002365 
0.002422 
0.002258 
0.002500 
0.002851 
0.003227 
0.002975 
0.002311 
0.001771 
0.001684 
0.001571 
0.001550 
0.001298 
0.001097 
0.001017 
0.001004 
0.001002 
0.001001 
0.001000 
0.001000 
0.001004 
0.001167 
0.004636 
0.031880 
0.100828 
0.181601 
0.247378 
0.312320 
0.391494 
0.458216 
0.486834 
0.469997 
0.417148 
0.362245 
0.295258 
0.232760 
0.182430 
0.130528 
0.079975 
0.047954 
0.041072 
0.061814 
0.104410 
0.146995 
0.173223 
0.182529 
0.172917 
0.147079 
0.112512 
0.075438 
0.042938 
0.022206 
0.012667 
0.009448 
0.999910 
0.999911 
0.999909 
0.999902 
0.999895 
0.999888 
0.999881 
0.999873 
0.999865 
0.999857 
0.999848 
0.999839 
0.999829 
0.999819 
0.999808 
0.999796 
0.999784 
0.999772 
0.999758 
0.999744 
0.999729 
0.999714 
0.999698 
0.999676 
0.999629 
0.999558 
0.999498 
0.999458 
0.999423 
0.999401 
0.999419 
0.999444 
0.999367 
0.999182 
0.999030 
0.998963 
0.998931 
0.998902 
0.998885 
0.998905 
0.998977 
0.999071 
0.999121 
0.999112 
0.999066 
0.999053 
0.999115 
0.999223 
0.999307 
0.999355 
0.999393 
0.999430 
0.999467 
0.999502 
0.999536 
0.999568 
0.999598 
0.999627 
0.999654 
0.999682 
0.999717 
0.999760 
0.999802 
0.999839 
0.999863 
0.999873 
0.999880 
0.999887 
0.999892 
0.999895 
0.999893 
0.999887 
0.999888 
0.999896 
0.999906 
0.999918 
0.999929 
0.999939 
0.999950 
0.999958 
0.999963 
0.999966 
0.999968 
0.999971 
0.999975 
0.999980 
0.999983 
0.999984 
0.999983 
0.999984 
0.999985 
0.999987 
0.999990 
0.999991 
0.999992 
0.999993 
0.999985 
0.954031 
0.803265 
0.656031 
0.552986 
0.420787 
0.269694 
0.173968 
0.115718 
0.086841 
0.071726 
0.064864 
0.053590 
0.048085 
0.043592 
0.040077 
0.037339 
0.034705 
0.032769 
0.031185 
0.029653 
0.028516 
0.027798 
0.026899 
0.025035 
0.023892 
0.022599 
0.021204 
0.018951 
0.017597 
0.016922 
0.016315 
0.014886 
0.013684 
0.012727 
0.011456 
0.011026 
0.009887 
0.008241 
0.007226 
0.006874 
0.005852 
0.005285 
0.004827 
0.004452 
0.004622 
0.004696 
0.004449 
0.004203 
0.004251 
0.004159 
0.003625 
0.003615 
0.003974 
0.004585 
0.004932 
0.004775 
0.004195 
0.003751 
0.003568 
0.003627 
0.003329 
0.002682 
0.001907 
0.001462 
0.001274 
0.001151 
0.001053 
0.001022 
0.001045 
0.001291 
0.003107 
0.014985 
0.052163 
0.106832 
0.155214 
0.198125 
0.248396 
0.293298 
0.324791 
0.330969 
0.314422 
0.288283 
0.257307 
0.217354 
0.178305 
0.160423 
0.144131 
0.117135 
0.090538 
0.091023 
0.127561 
0.186249 
0.228453 
0.243247 
0.251364 
0.250053 
0.222717 
0.178908 
0.131441 
0.084141 
0.044881 
0.024059 
0.015530 
0.999909 
0.999910 
0.999908 
0.999901 
0.999893 
0.999886 
0.999879 
0.999872 
0.999864 
0.999855 
0.999847 
0.999837 
0.999827 
0.999817 
0.999806 
0.999795 
0.999782 
0.999770 
0.999756 
0.999742 
0.999727 
0.999712 
0.999696 
0.999672 
0.999623 
0.999554 
0.999495 
0.999455 
0.999421 
0.999399 
0.999416 
0.999440 
0.999359 
0.999167 
0.999011 
0.998953 
0.998928 
0.998903 
0.998882 
0.998890 
0.998954 
0.999054 
0.999123 
0.999131 
0.999098 
0.999072 
0.999120 
0.999221 
0.999305 
0.999353 
0.999391 
0.999428 
0.999464 
0.999499 
0.999532 
0.999564 
0.999595 
0.999624 
0.999651 
0.999679 
0.999715 
0.999757 
0.999800 
0.999838 
0.999862 
0.999872 
0.999879 
0.999886 
0.999892 
0.999895 
0.999893 
0.999887 
0.999887 
0.999894 
0.999904 
0.999914 
0.999924 
0.999933 
0.999943 
0.999953 
0.999960 
0.999964 
0.999967 
0.999970 
0.999975 
0.999980 
0.999983 
0.999984 
0.999984 
0.999984 
0.999984 
0.999986 
0.999989 
0.999991 
0.999993 
0.999994 
0.999980 
0.911585 
0.693989 
0.454332 
0.424987 
0.428281 
0.363639 
0.244779 
0.155750 
0.101928 
0.082246 
0.070713 
0.060337 
0.053334 
0.047972 
0.043316 
0.039894 
0.037903 
0.035038 
0.032769 
0.029943 
0.028077 
0.025883 
0.024902 
0.023892 
0.022913 
0.022427 
0.020843 
0.019180 
0.017781 
0.016642 
0.015663 
0.014775 
0.014274 
0.013598 
0.012440 
0.011972 
0.010984 
0.009477 
0.008425 
0.007595 
0.007018 
0.006546 
0.006312 
0.006307 
0.006509 
0.006533 
0.006304 
0.006290 
0.006815 
0.007108 
0.006655 
0.006407 
0.006732 
0.007172 
0.007549 
0.007912 
0.007840 
0.007546 
0.007464 
0.006887 
0.005965 
0.004917 
0.004677 
0.005004 
0.005268 
0.004377 
0.002983 
0.002389 
0.003278 
0.006922 
0.018128 
0.046841 
0.087361 
0.115957 
0.130891 
0.145709 
0.157920 
0.164387 
0.161236 
0.150111 
0.134530 
0.123471 
0.112162 
0.097467 
0.084306 
0.079426 
0.077348 
0.067741 
0.060272 
0.074816 
0.117583 
0.182669 
0.227133 
0.253727 
0.268751 
0.281497 
0.274716 
0.244326 
0.198689 
0.143330 
0.089598 
0.051694 
0.033026 
0.999907 
0.999909 
0.999906 
0.999899 
0.999892 
0.999885 
0.999878 
0.999870 
0.999862 
0.999854 
0.999845 
0.999835 
0.999825 
0.999815 
0.999804 
0.999792 
0.999780 
0.999767 
0.999754 
0.999740 
0.999725 
0.999710 
0.999694 
0.999669 
0.999620 
0.999550 
0.999491 
0.999451 
0.999417 
0.999393 
0.999399 
0.999419 
0.999342 
0.999156 
0.999001 
0.998946 
0.998927 
0.998904 
0.998883 
0.998888 
0.998949 
0.999052 
0.999127 
0.999145 
0.999117 
0.999085 
0.999122 
0.999220 
0.999303 
0.999351 
0.999388 
0.999424 
0.999460 
0.999495 
0.999529 
0.999561 
0.999591 
0.999620 
0.999647 
0.999675 
0.999710 
0.999753 
0.999797 
0.999836 
0.999860 
0.999871 
0.999878 
0.999884 
0.999890 
0.999894 
0.999892 
0.999885 
0.999885 
0.999892 
0.999902 
0.999913 
0.999921 
0.999929 
0.999937 
0.999946 
0.999954 
0.999960 
0.999964 
0.999967 
0.999973 
0.999978 
0.999981 
0.999982 
0.999982 
0.999982 
0.999983 
0.999985 
0.999988 
0.999990 
0.999993 
0.999995 
0.999988 
0.923092 
0.662980 
0.426786 
0.336576 
0.371337 
0.387055 
0.326444 
0.225646 
0.151314 
0.106667 
0.079426 
0.068383 
0.062368 
0.054301 
0.047902 
0.044498 
0.041398 
0.039191 
0.036143 
0.033549 
0.030341 
0.028162 
0.026185 
0.025219 
0.024232 
0.023425 
0.022925 
0.021922 
0.020818 
0.019637 
0.017854 
0.016306 
0.015607 
0.014893 
0.014084 
0.013639 
0.013505 
0.012252 
0.011284 
0.010380 
0.009891 
0.009758 
0.009621 
0.008978 
0.008982 
0.008772 
0.008278 
0.008246 
0.009259 
0.010087 
0.010128 
0.009928 
0.010098 
0.010441 
0.011072 
0.011761 
0.012684 
0.013213 
0.013507 
0.012781 
0.010981 
0.009642 
0.011145 
0.016416 
0.021355 
0.021945 
0.017439 
0.014798 
0.019169 
0.029936 
0.047995 
0.072053 
0.091450 
0.094488 
0.088573 
0.081325 
0.071516 
0.061153 
0.050878 
0.040243 
0.031243 
0.025691 
0.022226 
0.018872 
0.016253 
0.015017 
0.013275 
0.009870 
0.009611 
0.016553 
0.041412 
0.091045 
0.164478 
0.214045 
0.238517 
0.255824 
0.261926 
0.262716 
0.248455 
0.202128 
0.141011 
0.095197 
0.067745 
0.999907 
0.999908 
0.999905 
0.999899 
0.999891 
0.999884 
0.999877 
0.999869 
0.999861 
0.999853 
0.999844 
0.999834 
0.999824 
0.999814 
0.999803 
0.999791 
0.999779 
0.999766 
0.999753 
0.999739 
0.999724 
0.999709 
0.999693 
0.999669 
0.999620 
0.999550 
0.999492 
0.999452 
0.999419 
0.999388 
0.999382 
0.999390 
0.999327 
0.999155 
0.999008 
0.998956 
0.998939 
0.998917 
0.998897 
0.998901 
0.998961 
0.999062 
0.999136 
0.999157 
0.999134 
0.999102 
0.999132 
0.999225 
0.999306 
0.999353 
0.999390 
0.999426 
0.999461 
0.999495 
0.999528 
0.999560 
0.999590 
0.999619 
0.999645 
0.999673 
0.999706 
0.999747 
0.999792 
0.999833 
0.999858 
0.999870 
0.999877 
0.999883 
0.999890 
0.999893 
0.999889 
0.999883 
0.999883 
0.999891 
0.999901 
0.999912 
0.999920 
0.999927 
0.999933 
0.999941 
0.999948 
0.999953 
0.999958 
0.999963 
0.999969 
0.999975 
0.999978 
0.999979 
0.999979 
0.999980 
0.999982 
0.999984 
0.999987 
0.999989 
0.999992 
0.999994 
0.999994 
0.938211 
0.697047 
0.376614 
0.245606 
0.243416 
0.310083 
0.364307 
0.341124 
0.257483 
0.157620 
0.105822 
0.082227 
0.071443 
0.061337 
0.054632 
0.048759 
0.044091 
0.041608 
0.039297 
0.037266 
0.036401 
0.033161 
0.031155 
0.029418 
0.027601 
0.026835 
0.025903 
0.025533 
0.025368 
0.024328 
0.022482 
0.020632 
0.018878 
0.017832 
0.017215 
0.017149 
0.017143 
0.016512 
0.015806 
0.014996 
0.014389 
0.014448 
0.013593 
0.012660 
0.012012 
0.011737 
0.011666 
0.011467 
0.011959 
0.012814 
0.013725 
0.013973 
0.014500 
0.015019 
0.015084 
0.015717 
0.016187 
0.017692 
0.018339 
0.019454 
0.018367 
0.018609 
0.021071 
0.027899 
0.035933 
0.039585 
0.034507 
0.026874 
0.025080 
0.027980 
0.031890 
0.037260 
0.038358 
0.034335 
0.027961 
0.021011 
0.015373 
0.011033 
0.008102 
0.005153 
0.003316 
0.002487 
0.002099 
0.001833 
0.001655 
0.001548 
0.001380 
0.001187 
0.001171 
0.001735 
0.006511 
0.036247 
0.117465 
0.208041 
0.228028 
0.224042 
0.228621 
0.258113 
0.276627 
0.247092 
0.194338 
0.142792 
0.112864 
0.999906 
0.999908 
0.999905 
0.999898 
0.999891 
0.999883 
0.999876 
0.999869 
0.999861 
0.999852 
0.999843 
0.999834 
0.999824 
0.999813 
0.999802 
0.999791 
0.999779 
0.999766 
0.999753 
0.999739 
0.999724 
0.999709 
0.999694 
0.999670 
0.999621 
0.999552 
0.999494 
0.999455 
0.999422 
0.999389 
0.999373 
0.999375 
0.999320 
0.999162 
0.999025 
0.998977 
0.998959 
0.998934 
0.998915 
0.998920 
0.998978 
0.999076 
0.999148 
0.999171 
0.999157 
0.999133 
0.999160 
0.999239 
0.999313 
0.999358 
0.999394 
0.999429 
0.999464 
0.999497 
0.999530 
0.999561 
0.999590 
0.999618 
0.999645 
0.999671 
0.999700 
0.999738 
0.999783 
0.999825 
0.999854 
0.999869 
0.999876 
0.999883 
0.999888 
0.999889 
0.999885 
0.999879 
0.999881 
0.999889 
0.999900 
0.999910 
0.999919 
0.999926 
0.999932 
0.999938 
0.999944 
0.999949 
0.999955 
0.999960 
0.999965 
0.999970 
0.999973 
0.999975 
0.999977 
0.999979 
0.999981 
0.999983 
0.999986 
0.999988 
0.999991 
0.999993 
0.999994 
0.950356 
0.724307 
0.405659 
0.195026 
0.147756 
0.181474 
0.277783 
0.350133 
0.346993 
0.268068 
0.185029 
0.129954 
0.093281 
0.075349 
0.066228 
0.057174 
0.048439 
0.044621 
0.041442 
0.039347 
0.037870 
0.037720 
0.034198 
0.032546 
0.030970 
0.029441 
0.028509 
0.027058 
0.026346 
0.026561 
0.027613 
0.025852 
0.024074 
0.022727 
0.021887 
0.021142 
0.020341 
0.020193 
0.020260 
0.020771 
0.019329 
0.018570 
0.017698 
0.016035 
0.015480 
0.014690 
0.013763 
0.014043 
0.013644 
0.013526 
0.013938 
0.014544 
0.016267 
0.017184 
0.015434 
0.013508 
0.012408 
0.012776 
0.012795 
0.013101 
0.014229 
0.014570 
0.015872 
0.016978 
0.018147 
0.019673 
0.016193 
0.010294 
0.006575 
0.005086 
0.004715 
0.004647 
0.004456 
0.003766 
0.002917 
0.002204 
0.001710 
0.001442 
0.001253 
0.001110 
0.001034 
0.001013 
0.001008 
0.001005 
0.001003 
0.001003 
0.001001 
0.001000 
0.001000 
0.001042 
0.003602 
0.031023 
0.134347 
0.231750 
0.253081 
0.212593 
0.200680 
0.223957 
0.276705 
0.285634 
0.244555 
0.197619 
0.163059 
0.999906 
0.999907 
0.999904 
0.999898 
0.999890 
0.999883 
0.999876 
0.999868 
0.999860 
0.999851 
0.999842 
0.999833 
0.999823 
0.999813 
0.999802 
0.999790 
0.999778 
0.999766 
0.999752 
0.999739 
0.999724 
0.999709 
0.999694 
0.999670 
0.999622 
0.999554 
0.999496 
0.999458 
0.999426 
0.999394 
0.999375 
0.999375 
0.999330 
0.999189 
0.999055 
0.999004 
0.998986 
0.998957 
0.998936 
0.998941 
0.998997 
0.999092 
0.999161 
0.999189 
0.999189 
0.999185 
0.999204 
0.999265 
0.999322 
0.999364 
0.999398 
0.999433 
0.999466 
0.999499 
0.999531 
0.999562 
0.999591 
0.999618 
0.999644 
0.999669 
0.999696 
0.999730 
0.999772 
0.999814 
0.999848 
0.999866 
0.999876 
0.999882 
0.999886 
0.999885 
0.999877 
0.999874 
0.999879 
0.999888 
0.999898 
0.999909 
0.999918 
0.999925 
0.999931 
0.999936 
0.999942 
0.999948 
0.999954 
0.999959 
0.999962 
0.999966 
0.999969 
0.999972 
0.999975 
0.999978 
0.999980 
0.999983 
0.999985 
0.999988 
0.999990 
0.999993 
0.999994 
0.967049 
0.775423 
0.454273 
0.219827 
0.122366 
0.100901 
0.130981 
0.204329 
0.311958 
0.367752 
0.335183 
0.243555 
0.169771 
0.123065 
0.098771 
0.077635 
0.060264 
0.050517 
0.044771 
0.039840 
0.038174 
0.036079 
0.033946 
0.032415 
0.031678 
0.029881 
0.028280 
0.026916 
0.025395 
0.025468 
0.026215 
0.027058 
0.025597 
0.024597 
0.023698 
0.022329 
0.021281 
0.020409 
0.020731 
0.019848 
0.019112 
0.018049 
0.016745 
0.015335 
0.014593 
0.013188 
0.011950 
0.011890 
0.011184 
0.010084 
0.009472 
0.009542 
0.010589 
0.010889 
0.009356 
0.007546 
0.006098 
0.005428 
0.004955 
0.004754 
0.004739 
0.004649 
0.004229 
0.003456 
0.002852 
0.002648 
0.002243 
0.001546 
0.001178 
0.001072 
0.001047 
0.001046 
0.001040 
0.001026 
0.001015 
0.001008 
0.001004 
0.001002 
0.001002 
0.001000 
0.001000 
0.001000 
0.001000 
0.001000 
0.001000 
0.001000 
0.001000 
0.001000 
0.001003 
0.001519 
0.012179 
0.082289 
0.217065 
0.310417 
0.272353 
0.221109 
0.186471 
0.196844 
0.236579 
0.283668 
0.291645 
0.261911 
0.226106 
0.999905 
0.999906 
0.999904 
0.999897 
0.999889 
0.999882 
0.999875 
0.999867 
0.999859 
0.999851 
0.999842 
0.999832 
0.999822 
0.999812 
0.999801 
0.999790 
0.999778 
0.999765 
0.999752 
0.999738 
0.999724 
0.999709 
0.999694 
0.999671 
0.999623 
0.999555 
0.999499 
0.999462 
0.999431 
0.999399 
0.999381 
0.999384 
0.999358 
0.999236 
0.999100 
0.999034 
0.999005 
0.998980 
0.998959 
0.998963 
0.999015 
0.999103 
0.999173 
0.999205 
0.999219 
0.999230 
0.999253 
0.999292 
0.999335 
0.999370 
0.999404 
0.999437 
0.999469 
0.999502 
0.999533 
0.999562 
0.999591 
0.999618 
0.999644 
0.999668 
0.999693 
0.999723 
0.999762 
0.999804 
0.999841 
0.999864 
0.999875 
0.999881 
0.999885 
0.999881 
0.999872 
0.999869 
0.999876 
0.999886 
0.999897 
0.999908 
0.999916 
0.999923 
0.999929 
0.999935 
0.999941 
0.999947 
0.999953 
0.999957 
0.999960 
0.999963 
0.999967 
0.999970 
0.999974 
0.999977 
0.999979 
0.999982 
0.999984 
0.999987 
0.999989 
0.999992 
0.999994 
0.962473 
0.803089 
0.501609 
0.258742 
0.135780 
0.083030 
0.060719 
0.084637 
0.149590 
0.266951 
0.353138 
0.358143 
0.311386 
0.240704 
0.185208 
0.139834 
0.101896 
0.075719 
0.059888 
0.046693 
0.039906 
0.036662 
0.032936 
0.031315 
0.030350 
0.028756 
0.028118 
0.026541 
0.024948 
0.023293 
0.022797 
0.021971 
0.021531 
0.021314 
0.020384 
0.019346 
0.018176 
0.016934 
0.015589 
0.014661 
0.013554 
0.012892 
0.012021 
0.010969 
0.010437 
0.009151 
0.007965 
0.007441 
0.006542 
0.005549 
0.004760 
0.004496 
0.004656 
0.004596 
0.003668 
0.002886 
0.002379 
0.002063 
0.001921 
0.001852 
0.001631 
0.001338 
0.001198 
0.001084 
0.001030 
0.001017 
0.001011 
0.001003 
0.001000 
0.001000 
0.001000 
0.001000 
0.001000 
0.001000 
0.001000 
0.001000 
0.001000 
0.001000 
0.001000 
0.001000 
0.001000 
0.001000 
0.001000 
0.001000 
0.001000 
0.001000 
0.001000 
0.001000 
0.001076 
0.005141 
0.051648 
0.189144 
0.345628 
0.366937 
0.296695 
0.228510 
0.194481 
0.180378 
0.196286 
0.247370 
0.306398 
0.322922 
0.306332 
0.999904 
0.999906 
0.999903 
0.999896 
0.999888 
0.999881 
0.999874 
0.999866 
0.999858 
0.999850 
0.999841 
0.999831 
0.999822 
0.999811 
0.999800 
0.999789 
0.999777 
0.999765 
0.999752 
0.999738 
0.999724 
0.999710 
0.999695 
0.999672 
0.999625 
0.999558 
0.999502 
0.999466 
0.999436 
0.999405 
0.999385 
0.999390 
0.999385 
0.999294 
0.999144 
0.999046 
0.999013 
0.998996 
0.998983 
0.998984 
0.999023 
0.999104 
0.999175 
0.999216 
0.999238 
0.999259 
0.999282 
0.999316 
0.999354 
0.999386 
0.999412 
0.999441 
0.999473 
0.999504 
0.999534 
0.999563 
0.999591 
0.999618 
0.999643 
0.999667 
0.999691 
0.999717 
0.999752 
0.999793 
0.999832 
0.999859 
0.999873 
0.999880 
0.999883 
0.999877 
0.999868 
0.999867 
0.999874 
0.999885 
0.999896 
0.999906 
0.999915 
0.999922 
0.999928 
0.999933 
0.999939 
0.999946 
0.999952 
0.999956 
0.999959 
0.999962 
0.999966 
0.999969 
0.999972 
0.999975 
0.999978 
0.999981 
0.999983 
0.999986 
0.999988 
0.999991 
0.999992 
0.972189 
0.828444 
0.538661 
0.298608 
0.172853 
0.099500 
0.057224 
0.040887 
0.052259 
0.094394 
0.175601 
0.275598 
0.344676 
0.360123 
0.330490 
0.299277 
0.221182 
0.168969 
0.122373 
0.086793 
0.062801 
0.050619 
0.041779 
0.036015 
0.031435 
0.028512 
0.027805 
0.027209 
0.026247 
0.024706 
0.021819 
0.019737 
0.018885 
0.018711 
0.017974 
0.016929 
0.015293 
0.014259 
0.012918 
0.012092 
0.011176 
0.010870 
0.010135 
0.009382 
0.008752 
0.007815 
0.006448 
0.005195 
0.004078 
0.003194 
0.002713 
0.002474 
0.002630 
0.002308 
0.001887 
0.001625 
0.001502 
0.001388 
0.001322 
0.001258 
0.001144 
0.001049 
0.001016 
0.001005 
0.001001 
0.001001 
0.001001 
0.001000 
0.001000 
0.001000 
0.001000 
0.001000 
0.001000 
0.001000 
0.001000 
0.001000 
0.001000 
0.001000 
0.001000 
0.001000 
0.001000 
0.001000 
0.001000 
0.001000 
0.001000 
0.001000 
0.001000 
0.001002 
0.001371 
0.014029 
0.103279 
0.290132 
0.414157 
0.394956 
0.302223 
0.239529 
0.213189 